
    -----------------------------------------------------------------------
          Psi4: An Open-Source Ab Initio Electronic Structure Package
                               Psi4 1.4a2.dev138 

                         Git: Rev {master} aa2bb28 


    R. M. Parrish, L. A. Burns, D. G. A. Smith, A. C. Simmonett,
    A. E. DePrince III, E. G. Hohenstein, U. Bozkaya, A. Yu. Sokolov,
    R. Di Remigio, R. M. Richard, J. F. Gonthier, A. M. James,
    H. R. McAlexander, A. Kumar, M. Saitow, X. Wang, B. P. Pritchard,
    P. Verma, H. F. Schaefer III, K. Patkowski, R. A. King, E. F. Valeev,
    F. A. Evangelista, J. M. Turney, T. D. Crawford, and C. D. Sherrill,
    J. Chem. Theory Comput. 13(7) pp 3185--3197 (2017).
    (doi: 10.1021/acs.jctc.7b00174)


                         Additional Contributions by
    P. Kraus, H. Kruse, M. H. Lechner, M. C. Schieber, R. A. Shaw,
    A. Alenaizan, R. Galvelis, Z. L. Glick, S. Lehtola, and J. P. Misiewicz

    -----------------------------------------------------------------------


    Psi4 started on: Thursday, 21 November 2019 05:51AM

    Process ID: 24253
    Host:       ws-b14-mmd
    PSIDATADIR: /home/mmd01986/anaconda3/envs/psi4/share/psi4
    Memory:     500.0 MiB
    Threads:    1
    
  ==> Input File <==

--------------------------------------------------------------------------

# PYTHONPATH must include directory above plugin directory.
#     Define either externally or here, then import plugin.
sys.path.insert(0, './..')
import ddcc

molecule {
O
H 1 R
H 1 R 2 A

R = 1.1
A = 104.0
symmetry c1
}

set {
  basis sto-3g
}

set ddcc {
  print 1
}
set scf_type pk
set mp2_type conv
set E_CONVERGENCE 14
set D_CONVERGENCE 14

e = energy('ddcc')
er = energy('scf')
e1 = energy('mp2')
print("MP2 Energy (Psi4) ",e1 - er)
e2 = energy('ccsd')
e3 = energy('ccsd(t)')
print("CCSD Energy (Psi4) ",e2 - er)
print("(T) Energy (Psi4) ",e3 - e2)
--------------------------------------------------------------------------

*** tstart() called on ws-b14-mmd
*** at Thu Nov 21 05:51:12 2019

   => Loading Basis Set <=

    Name: STO-3G
    Role: ORBITAL
    Keyword: BASIS
    atoms 1   entry O          line    81 file /home/mmd01986/anaconda3/envs/psi4/share/psi4/basis/sto-3g.gbs 
    atoms 2-3 entry H          line    19 file /home/mmd01986/anaconda3/envs/psi4/share/psi4/basis/sto-3g.gbs 


         ---------------------------------------------------------
                                   SCF
               by Justin Turney, Rob Parrish, Andy Simmonett
                          and Daniel G. A. Smith
                              RHF Reference
                        1 Threads,    500 MiB Core
         ---------------------------------------------------------

  ==> Geometry <==

    Molecular point group: c1
    Full point group: C2v

    Geometry (in Angstrom), charge = 0, multiplicity = 1:

       Center              X                  Y                   Z               Mass       
    ------------   -----------------  -----------------  -----------------  -----------------
         O            0.000000000000     0.000000000000    -0.075791843599    15.994914619570
         H            0.000000000000    -0.866811828967     0.601435779259     1.007825032230
         H            0.000000000000     0.866811828967     0.601435779259     1.007825032230

  Running in c1 symmetry.

  Rotational constants: A =     20.53324  B =     11.13094  C =      7.21807 [cm^-1]
  Rotational constants: A = 615570.98071  B = 333697.07813  C = 216392.23582 [MHz]
  Nuclear repulsion =    8.002366482173422

  Charge       = 0
  Multiplicity = 1
  Electrons    = 10
  Nalpha       = 5
  Nbeta        = 5

  ==> Algorithm <==

  SCF Algorithm Type is PK.
  DIIS enabled.
  MOM disabled.
  Fractional occupation disabled.
  Guess Type is SAD.
  Energy threshold   = 1.00e-14
  Density threshold  = 1.00e-14
  Integral threshold = 0.00e+00

  ==> Primary Basis <==

  Basis Set: STO-3G
    Blend: STO-3G
    Number of shells: 5
    Number of basis function: 7
    Number of Cartesian functions: 7
    Spherical Harmonics?: true
    Max angular momentum: 1

  ==> Pre-Iterations <==

   -------------------------------------------------------
    Irrep   Nso     Nmo     Nalpha   Nbeta   Ndocc  Nsocc
   -------------------------------------------------------
     A          7       7       0       0       0       0
   -------------------------------------------------------
    Total       7       7       5       5       5       0
   -------------------------------------------------------

  ==> Integral Setup <==

  Using in-core PK algorithm.
   Calculation information:
      Number of atoms:                   3
      Number of AO shells:               5
      Number of primitives:             15
      Number of atomic orbitals:         7
      Number of basis functions:         7

      Integral cutoff                 1.00e-12
      Number of threads:                 1

  Performing in-core PK
  Using 812 doubles for integral storage.
  We computed 120 shell quartets total.
  Whereas there are 120 unique shell quartets.

  ==> DiskJK: Disk-Based J/K Matrices <==

    J tasked:                  Yes
    K tasked:                  Yes
    wK tasked:                  No
    Memory [MiB]:              375
    Schwarz Cutoff:          1E-12

    OpenMP threads:              1

  Minimum eigenvalue in the overlap matrix is 4.3422219609E-01.
  Using Symmetric Orthogonalization.

  SCF Guess: Superposition of Atomic Densities via on-the-fly atomic UHF.

  ==> Iterations <==

                        Total Energy        Delta E     RMS |[F,P]|

   @RHF iter SAD:   -73.91840937239937   -7.39184e+01   0.00000e+00 
   @RHF iter   1:   -74.87336465594267   -9.54955e-01   3.97455e-02 DIIS
   @RHF iter   2:   -74.93987676125185   -6.65121e-02   8.33002e-03 DIIS
   @RHF iter   3:   -74.94198779297382   -2.11103e-03   1.41873e-03 DIIS
   @RHF iter   4:   -74.94207838071331   -9.05877e-05   1.30976e-04 DIIS
   @RHF iter   5:   -74.94207981227559   -1.43156e-06   3.00931e-05 DIIS
   @RHF iter   6:   -74.94207989866891   -8.63933e-08   3.83470e-07 DIIS
   @RHF iter   7:   -74.94207989868093   -1.20224e-11   1.48346e-09 DIIS
   @RHF iter   8:   -74.94207989868096   -2.84217e-14   6.38531e-12 DIIS
   @RHF iter   9:   -74.94207989868087    8.52651e-14   2.85936e-14 DIIS
   @RHF iter  10:   -74.94207989868090   -2.84217e-14   1.29099e-14 DIIS
   @RHF iter  11:   -74.94207989868093   -2.84217e-14   8.74858e-15 DIIS
   @RHF iter  12:   -74.94207989868090    2.84217e-14   5.38283e-15 DIIS
   @RHF iter  13:   -74.94207989868093   -2.84217e-14   4.94049e-15 DIIS
   @RHF iter  14:   -74.94207989868090    2.84217e-14   3.60046e-15 DIIS
   @RHF iter  15:   -74.94207989868097   -7.10543e-14   3.37175e-15 DIIS
   @RHF iter  16:   -74.94207989868090    7.10543e-14   4.03514e-15 DIIS
   @RHF iter  17:   -74.94207989868096   -5.68434e-14   3.97940e-15 DIIS
   @RHF iter  18:   -74.94207989868094    1.42109e-14   3.51495e-15 DIIS
   @RHF iter  19:   -74.94207989868093    1.42109e-14   2.36078e-15 DIIS
   @RHF iter  20:   -74.94207989868092    1.42109e-14   4.44730e-15 DIIS
   @RHF iter  21:   -74.94207989868093   -1.42109e-14   3.77653e-15 DIIS
   @RHF iter  22:   -74.94207989868092    1.42109e-14   3.72108e-15 DIIS
   @RHF iter  23:   -74.94207989868093   -1.42109e-14   3.69785e-15 DIIS
   @RHF iter  24:   -74.94207989868087    5.68434e-14   3.07345e-15 DIIS
   @RHF iter  25:   -74.94207989868093   -5.68434e-14   2.53002e-15 DIIS
   @RHF iter  26:   -74.94207989868093    0.00000e+00   2.50559e-15 DIIS
  Energy and wave function converged.


  ==> Post-Iterations <==

    Orbital Energies [Eh]
    ---------------------

    Doubly Occupied:                                                      

       1A    -20.262892     2A     -1.209697     3A     -0.547965  
       4A     -0.436527     5A     -0.387587  

    Virtual:                                                              

       6A      0.477619     7A      0.588139  

    Final Occupation by Irrep:
              A 
    DOCC [     5 ]

  @RHF Final Energy:   -74.94207989868093

   => Energetics <=

    Nuclear Repulsion Energy =              8.0023664821734215
    One-Electron Energy =                -120.1995577635353527
    Two-Electron Energy =                  37.2551113826810152
    Total Energy =                        -74.9420798986809302

Computation Completed


Properties will be evaluated at   0.000000,   0.000000,   0.000000 [a0]

Properties computed using the SCF density matrix

  Nuclear Dipole Moment: [e a0]
     X:     0.0000      Y:     0.0000      Z:     1.1273

  Electronic Dipole Moment: [e a0]
     X:    -0.0000      Y:     0.0000      Z:    -0.5238

  Dipole Moment: [e a0]
     X:    -0.0000      Y:     0.0000      Z:     0.6035     Total:     0.6035

  Dipole Moment: [D]
     X:    -0.0000      Y:     0.0000      Z:     1.5340     Total:     1.5340


*** tstop() called on ws-b14-mmd at Thu Nov 21 05:51:13 2019
Module time:
	user time   =       0.37 seconds =       0.01 minutes
	system time =       0.00 seconds =       0.00 minutes
	total time  =          1 seconds =       0.02 minutes
Total time:
	user time   =       0.37 seconds =       0.01 minutes
	system time =       0.00 seconds =       0.00 minutes
	total time  =          1 seconds =       0.02 minutes
 MINTS: Wrapper to libmints.
   by Justin Turney

   Calculation information:
      Number of threads:                 1
      Number of atoms:                   3
      Number of AO shells:               5
      Number of SO shells:               5
      Number of primitives:             15
      Number of atomic orbitals:         7
      Number of basis functions:         7

      Number of irreps:                  1
      Integral cutoff                 0.00e+00
      Number of functions per irrep: [   7 ]

 OEINTS: Overlap, kinetic, potential, dipole, and quadrupole integrals
         stored in file 35.

      Computing two-electron integrals...done
      Computed 231 non-zero two-electron integrals.
        Stored in file 33.


Reading options from the DDCC block
Calling plugin ddcc.so.



*** tstart() called on ws-b14-mmd
*** at Thu Nov 21 05:51:15 2019

   => Loading Basis Set <=

    Name: STO-3G
    Role: ORBITAL
    Keyword: BASIS
    atoms 1   entry O          line    81 file /home/mmd01986/anaconda3/envs/psi4/share/psi4/basis/sto-3g.gbs 
    atoms 2-3 entry H          line    19 file /home/mmd01986/anaconda3/envs/psi4/share/psi4/basis/sto-3g.gbs 


         ---------------------------------------------------------
                                   SCF
               by Justin Turney, Rob Parrish, Andy Simmonett
                          and Daniel G. A. Smith
                              RHF Reference
                        1 Threads,    500 MiB Core
         ---------------------------------------------------------

  ==> Geometry <==

    Molecular point group: c1
    Full point group: C2v

    Geometry (in Angstrom), charge = 0, multiplicity = 1:

       Center              X                  Y                   Z               Mass       
    ------------   -----------------  -----------------  -----------------  -----------------
         O            0.000000000000     0.000000000000    -0.075791843599    15.994914619570
         H            0.000000000000    -0.866811828967     0.601435779259     1.007825032230
         H            0.000000000000     0.866811828967     0.601435779259     1.007825032230

  Running in c1 symmetry.

  Rotational constants: A =     20.53324  B =     11.13094  C =      7.21807 [cm^-1]
  Rotational constants: A = 615570.98071  B = 333697.07813  C = 216392.23582 [MHz]
  Nuclear repulsion =    8.002366482173422

  Charge       = 0
  Multiplicity = 1
  Electrons    = 10
  Nalpha       = 5
  Nbeta        = 5

  ==> Algorithm <==

  SCF Algorithm Type is PK.
  DIIS enabled.
  MOM disabled.
  Fractional occupation disabled.
  Guess Type is SAD.
  Energy threshold   = 1.00e-14
  Density threshold  = 1.00e-14
  Integral threshold = 0.00e+00

  ==> Primary Basis <==

  Basis Set: STO-3G
    Blend: STO-3G
    Number of shells: 5
    Number of basis function: 7
    Number of Cartesian functions: 7
    Spherical Harmonics?: true
    Max angular momentum: 1

  ==> Pre-Iterations <==

   -------------------------------------------------------
    Irrep   Nso     Nmo     Nalpha   Nbeta   Ndocc  Nsocc
   -------------------------------------------------------
     A          7       7       0       0       0       0
   -------------------------------------------------------
    Total       7       7       5       5       5       0
   -------------------------------------------------------

  ==> Integral Setup <==

  Using in-core PK algorithm.
   Calculation information:
      Number of atoms:                   3
      Number of AO shells:               5
      Number of primitives:             15
      Number of atomic orbitals:         7
      Number of basis functions:         7

      Integral cutoff                 1.00e-12
      Number of threads:                 1

  Performing in-core PK
  Using 812 doubles for integral storage.
  We computed 120 shell quartets total.
  Whereas there are 120 unique shell quartets.

  ==> DiskJK: Disk-Based J/K Matrices <==

    J tasked:                  Yes
    K tasked:                  Yes
    wK tasked:                  No
    Memory [MiB]:              375
    Schwarz Cutoff:          1E-12

    OpenMP threads:              1

  Minimum eigenvalue in the overlap matrix is 4.3422219609E-01.
  Using Symmetric Orthogonalization.

  SCF Guess: Superposition of Atomic Densities via on-the-fly atomic UHF.

  ==> Iterations <==

                        Total Energy        Delta E     RMS |[F,P]|

   @RHF iter SAD:   -73.91840937239937   -7.39184e+01   0.00000e+00 
   @RHF iter   1:   -74.87336465594269   -9.54955e-01   3.97455e-02 DIIS
   @RHF iter   2:   -74.93987676125181   -6.65121e-02   8.33002e-03 DIIS
   @RHF iter   3:   -74.94198779297380   -2.11103e-03   1.41873e-03 DIIS
   @RHF iter   4:   -74.94207838071324   -9.05877e-05   1.30976e-04 DIIS
   @RHF iter   5:   -74.94207981227562   -1.43156e-06   3.00931e-05 DIIS
   @RHF iter   6:   -74.94207989866891   -8.63933e-08   3.83470e-07 DIIS
   @RHF iter   7:   -74.94207989868096   -1.20508e-11   1.48346e-09 DIIS
   @RHF iter   8:   -74.94207989868094    1.42109e-14   6.38516e-12 DIIS
   @RHF iter   9:   -74.94207989868090    4.26326e-14   2.84042e-14 DIIS
   @RHF iter  10:   -74.94207989868090    0.00000e+00   1.21806e-14 DIIS
   @RHF iter  11:   -74.94207989868096   -5.68434e-14   6.75071e-15 DIIS
   @RHF iter  12:   -74.94207989868087    8.52651e-14   5.41736e-15 DIIS
   @RHF iter  13:   -74.94207989868094   -7.10543e-14   4.32048e-15 DIIS
   @RHF iter  14:   -74.94207989868094    0.00000e+00   3.63446e-15 DIIS
  Energy and wave function converged.


  ==> Post-Iterations <==

    Orbital Energies [Eh]
    ---------------------

    Doubly Occupied:                                                      

       1A    -20.262892     2A     -1.209697     3A     -0.547965  
       4A     -0.436527     5A     -0.387587  

    Virtual:                                                              

       6A      0.477619     7A      0.588139  

    Final Occupation by Irrep:
              A 
    DOCC [     5 ]

  @RHF Final Energy:   -74.94207989868094

   => Energetics <=

    Nuclear Repulsion Energy =              8.0023664821734215
    One-Electron Energy =                -120.1995577635354238
    Two-Electron Energy =                  37.2551113826810507
    Total Energy =                        -74.9420798986809444

Computation Completed


Properties will be evaluated at   0.000000,   0.000000,   0.000000 [a0]

Properties computed using the SCF density matrix

  Nuclear Dipole Moment: [e a0]
     X:     0.0000      Y:     0.0000      Z:     1.1273

  Electronic Dipole Moment: [e a0]
     X:     0.0000      Y:     0.0000      Z:    -0.5238

  Dipole Moment: [e a0]
     X:     0.0000      Y:     0.0000      Z:     0.6035     Total:     0.6035

  Dipole Moment: [D]
     X:     0.0000      Y:     0.0000      Z:     1.5340     Total:     1.5340


*** tstop() called on ws-b14-mmd at Thu Nov 21 05:51:16 2019
Module time:
	user time   =       0.35 seconds =       0.01 minutes
	system time =       0.01 seconds =       0.00 minutes
	total time  =          1 seconds =       0.02 minutes
Total time:
	user time   =       3.54 seconds =       0.06 minutes
	system time =       0.02 seconds =       0.00 minutes
	total time  =          4 seconds =       0.07 minutes

*** tstart() called on ws-b14-mmd
*** at Thu Nov 21 05:51:16 2019

   => Loading Basis Set <=

    Name: STO-3G
    Role: ORBITAL
    Keyword: BASIS
    atoms 1   entry O          line    81 file /home/mmd01986/anaconda3/envs/psi4/share/psi4/basis/sto-3g.gbs 
    atoms 2-3 entry H          line    19 file /home/mmd01986/anaconda3/envs/psi4/share/psi4/basis/sto-3g.gbs 


         ---------------------------------------------------------
                                   SCF
               by Justin Turney, Rob Parrish, Andy Simmonett
                          and Daniel G. A. Smith
                              RHF Reference
                        1 Threads,    500 MiB Core
         ---------------------------------------------------------

  ==> Geometry <==

    Molecular point group: c1
    Full point group: C2v

    Geometry (in Angstrom), charge = 0, multiplicity = 1:

       Center              X                  Y                   Z               Mass       
    ------------   -----------------  -----------------  -----------------  -----------------
         O            0.000000000000     0.000000000000    -0.075791843599    15.994914619570
         H            0.000000000000    -0.866811828967     0.601435779259     1.007825032230
         H            0.000000000000     0.866811828967     0.601435779259     1.007825032230

  Running in c1 symmetry.

  Rotational constants: A =     20.53324  B =     11.13094  C =      7.21807 [cm^-1]
  Rotational constants: A = 615570.98071  B = 333697.07813  C = 216392.23582 [MHz]
  Nuclear repulsion =    8.002366482173422

  Charge       = 0
  Multiplicity = 1
  Electrons    = 10
  Nalpha       = 5
  Nbeta        = 5

  ==> Algorithm <==

  SCF Algorithm Type is PK.
  DIIS enabled.
  MOM disabled.
  Fractional occupation disabled.
  Guess Type is SAD.
  Energy threshold   = 1.00e-14
  Density threshold  = 1.00e-14
  Integral threshold = 0.00e+00

  ==> Primary Basis <==

  Basis Set: STO-3G
    Blend: STO-3G
    Number of shells: 5
    Number of basis function: 7
    Number of Cartesian functions: 7
    Spherical Harmonics?: true
    Max angular momentum: 1

  ==> Pre-Iterations <==

   -------------------------------------------------------
    Irrep   Nso     Nmo     Nalpha   Nbeta   Ndocc  Nsocc
   -------------------------------------------------------
     A          7       7       0       0       0       0
   -------------------------------------------------------
    Total       7       7       5       5       5       0
   -------------------------------------------------------

  ==> Integral Setup <==

  Using in-core PK algorithm.
   Calculation information:
      Number of atoms:                   3
      Number of AO shells:               5
      Number of primitives:             15
      Number of atomic orbitals:         7
      Number of basis functions:         7

      Integral cutoff                 1.00e-12
      Number of threads:                 1

  Performing in-core PK
  Using 812 doubles for integral storage.
  We computed 120 shell quartets total.
  Whereas there are 120 unique shell quartets.

  ==> DiskJK: Disk-Based J/K Matrices <==

    J tasked:                  Yes
    K tasked:                  Yes
    wK tasked:                  No
    Memory [MiB]:              375
    Schwarz Cutoff:          1E-12

    OpenMP threads:              1

  Minimum eigenvalue in the overlap matrix is 4.3422219609E-01.
  Using Symmetric Orthogonalization.

  SCF Guess: Superposition of Atomic Densities via on-the-fly atomic UHF.

  ==> Iterations <==

                        Total Energy        Delta E     RMS |[F,P]|

   @RHF iter SAD:   -73.91840937239937   -7.39184e+01   0.00000e+00 
   @RHF iter   1:   -74.87336465594269   -9.54955e-01   3.97455e-02 DIIS
   @RHF iter   2:   -74.93987676125184   -6.65121e-02   8.33002e-03 DIIS
   @RHF iter   3:   -74.94198779297383   -2.11103e-03   1.41873e-03 DIIS
   @RHF iter   4:   -74.94207838071334   -9.05877e-05   1.30976e-04 DIIS
   @RHF iter   5:   -74.94207981227564   -1.43156e-06   3.00931e-05 DIIS
   @RHF iter   6:   -74.94207989866891   -8.63933e-08   3.83470e-07 DIIS
   @RHF iter   7:   -74.94207989868090   -1.19940e-11   1.48346e-09 DIIS
   @RHF iter   8:   -74.94207989868093   -2.84217e-14   6.38633e-12 DIIS
   @RHF iter   9:   -74.94207989868093    0.00000e+00   2.83841e-14 DIIS
   @RHF iter  10:   -74.94207989868090    2.84217e-14   1.23792e-14 DIIS
   @RHF iter  11:   -74.94207989868096   -5.68434e-14   7.93375e-15 DIIS
   @RHF iter  12:   -74.94207989868092    4.26326e-14   5.26461e-15 DIIS
   @RHF iter  13:   -74.94207989868090    1.42109e-14   4.59541e-15 DIIS
   @RHF iter  14:   -74.94207989868096   -5.68434e-14   3.37622e-15 DIIS
   @RHF iter  15:   -74.94207989868086    9.94760e-14   4.05640e-15 DIIS
   @RHF iter  16:   -74.94207989868090   -4.26326e-14   3.19609e-15 DIIS
   @RHF iter  17:   -74.94207989868094   -4.26326e-14   2.81982e-15 DIIS
   @RHF iter  18:   -74.94207989868093    1.42109e-14   3.87052e-15 DIIS
   @RHF iter  19:   -74.94207989868093    0.00000e+00   4.37289e-15 DIIS
  Energy and wave function converged.


  ==> Post-Iterations <==

    Orbital Energies [Eh]
    ---------------------

    Doubly Occupied:                                                      

       1A    -20.262892     2A     -1.209697     3A     -0.547965  
       4A     -0.436527     5A     -0.387587  

    Virtual:                                                              

       6A      0.477619     7A      0.588139  

    Final Occupation by Irrep:
              A 
    DOCC [     5 ]

  @RHF Final Energy:   -74.94207989868093

   => Energetics <=

    Nuclear Repulsion Energy =              8.0023664821734215
    One-Electron Energy =                -120.1995577635353243
    Two-Electron Energy =                  37.2551113826809797
    Total Energy =                        -74.9420798986809302

Computation Completed


Properties will be evaluated at   0.000000,   0.000000,   0.000000 [a0]

Properties computed using the SCF density matrix

  Nuclear Dipole Moment: [e a0]
     X:     0.0000      Y:     0.0000      Z:     1.1273

  Electronic Dipole Moment: [e a0]
     X:     0.0000      Y:     0.0000      Z:    -0.5238

  Dipole Moment: [e a0]
     X:     0.0000      Y:     0.0000      Z:     0.6035     Total:     0.6035

  Dipole Moment: [D]
     X:     0.0000      Y:     0.0000      Z:     1.5340     Total:     1.5340


*** tstop() called on ws-b14-mmd at Thu Nov 21 05:51:16 2019
Module time:
	user time   =       0.37 seconds =       0.01 minutes
	system time =       0.00 seconds =       0.00 minutes
	total time  =          0 seconds =       0.00 minutes
Total time:
	user time   =       3.92 seconds =       0.07 minutes
	system time =       0.02 seconds =       0.00 minutes
	total time  =          4 seconds =       0.07 minutes
 MINTS: Wrapper to libmints.
   by Justin Turney

   Calculation information:
      Number of threads:                 1
      Number of atoms:                   3
      Number of AO shells:               5
      Number of SO shells:               5
      Number of primitives:             15
      Number of atomic orbitals:         7
      Number of basis functions:         7

      Number of irreps:                  1
      Integral cutoff                 0.00e+00
      Number of functions per irrep: [   7 ]

 OEINTS: Overlap, kinetic, potential, dipole, and quadrupole integrals
         stored in file 35.

      Computing two-electron integrals...done
      Computed 231 non-zero two-electron integrals.
        Stored in file 33.


*** tstart() called on ws-b14-mmd
*** at Thu Nov 21 05:51:16 2019


 ============================================================================== 
 ============================================================================== 
 ============================================================================== 

                       MP2   
              Program Written by Ugur Bozkaya,
              Latest Revision June 25, 2014.

 ============================================================================== 
 ============================================================================== 
 ============================================================================== 

	RMS orbital gradient is changed to :     1.00e-09
	MAX orbital gradient is changed to :     1.00e-04
	MO spaces per irreps... 

	IRREP   FC    OCC   VIR  FV 
	==============================
	   A     0     5     2    0
	==============================

	Memory is    524 MB 
	Cost of iabc is      0 MB 
	Cost of abcd is      0 MB 
	Switching to the incore algorithm for iabc..
	Switching to the incore algorithm for abcd..

	Computing MP2 energy using SCF MOs (Canonical MP2)... 
	============================================================================== 
	Nuclear Repulsion Energy (a.u.)    :     8.00236648217342
	SCF Energy (a.u.)                  :   -74.94207989868093
	REF Energy (a.u.)                  :   -74.94207989868093
	Alpha-Alpha Contribution (a.u.)    :    -0.00155311085989
	Alpha-Beta Contribution (a.u.)     :    -0.04604342308407
	Beta-Beta Contribution (a.u.)      :    -0.00155311085989
	Scaled_SS Correlation Energy (a.u.):    -0.00103540723993
	Scaled_OS Correlation Energy (a.u.):    -0.05525210770089
	SCS-MP2 Total Energy (a.u.)        :   -74.99836741362175
	SOS-MP2 Total Energy (a.u.)        :   -74.94207989868093
	SCSN-MP2 Total Energy (a.u.)       :   -74.94754684890773
	SCS-MP2-VDW Total Energy (a.u.)    :   -75.00256859108845
	SOS-PI-MP2 Total Energy (a.u.)     :   -75.00654069099863
	MP2 Correlation Energy (a.u.)      :    -0.04914964480385
	MP2 Total Energy (a.u.)            :   -74.99122954348478
	============================================================================== 

*** tstop() called on ws-b14-mmd at Thu Nov 21 05:51:16 2019
Module time:
	user time   =       0.00 seconds =       0.00 minutes
	system time =       0.00 seconds =       0.00 minutes
	total time  =          0 seconds =       0.00 minutes
Total time:
	user time   =       3.93 seconds =       0.07 minutes
	system time =       0.02 seconds =       0.00 minutes
	total time  =          4 seconds =       0.07 minutes

*** tstart() called on ws-b14-mmd
*** at Thu Nov 21 05:51:16 2019

   => Loading Basis Set <=

    Name: STO-3G
    Role: ORBITAL
    Keyword: BASIS
    atoms 1   entry O          line    81 file /home/mmd01986/anaconda3/envs/psi4/share/psi4/basis/sto-3g.gbs 
    atoms 2-3 entry H          line    19 file /home/mmd01986/anaconda3/envs/psi4/share/psi4/basis/sto-3g.gbs 


         ---------------------------------------------------------
                                   SCF
               by Justin Turney, Rob Parrish, Andy Simmonett
                          and Daniel G. A. Smith
                              RHF Reference
                        1 Threads,    500 MiB Core
         ---------------------------------------------------------

  ==> Geometry <==

    Molecular point group: c1
    Full point group: C2v

    Geometry (in Angstrom), charge = 0, multiplicity = 1:

       Center              X                  Y                   Z               Mass       
    ------------   -----------------  -----------------  -----------------  -----------------
         O            0.000000000000     0.000000000000    -0.075791843599    15.994914619570
         H            0.000000000000    -0.866811828967     0.601435779259     1.007825032230
         H            0.000000000000     0.866811828967     0.601435779259     1.007825032230

  Running in c1 symmetry.

  Rotational constants: A =     20.53324  B =     11.13094  C =      7.21807 [cm^-1]
  Rotational constants: A = 615570.98071  B = 333697.07813  C = 216392.23582 [MHz]
  Nuclear repulsion =    8.002366482173422

  Charge       = 0
  Multiplicity = 1
  Electrons    = 10
  Nalpha       = 5
  Nbeta        = 5

  ==> Algorithm <==

  SCF Algorithm Type is PK.
  DIIS enabled.
  MOM disabled.
  Fractional occupation disabled.
  Guess Type is SAD.
  Energy threshold   = 1.00e-14
  Density threshold  = 1.00e-14
  Integral threshold = 0.00e+00

  ==> Primary Basis <==

  Basis Set: STO-3G
    Blend: STO-3G
    Number of shells: 5
    Number of basis function: 7
    Number of Cartesian functions: 7
    Spherical Harmonics?: true
    Max angular momentum: 1

  ==> Pre-Iterations <==

   -------------------------------------------------------
    Irrep   Nso     Nmo     Nalpha   Nbeta   Ndocc  Nsocc
   -------------------------------------------------------
     A          7       7       0       0       0       0
   -------------------------------------------------------
    Total       7       7       5       5       5       0
   -------------------------------------------------------

  ==> Integral Setup <==

  Using in-core PK algorithm.
   Calculation information:
      Number of atoms:                   3
      Number of AO shells:               5
      Number of primitives:             15
      Number of atomic orbitals:         7
      Number of basis functions:         7

      Integral cutoff                 1.00e-12
      Number of threads:                 1

  Performing in-core PK
  Using 812 doubles for integral storage.
  We computed 120 shell quartets total.
  Whereas there are 120 unique shell quartets.

  ==> DiskJK: Disk-Based J/K Matrices <==

    J tasked:                  Yes
    K tasked:                  Yes
    wK tasked:                  No
    Memory [MiB]:              375
    Schwarz Cutoff:          1E-12

    OpenMP threads:              1

  Minimum eigenvalue in the overlap matrix is 4.3422219609E-01.
  Using Symmetric Orthogonalization.

  SCF Guess: Superposition of Atomic Densities via on-the-fly atomic UHF.

  ==> Iterations <==

                        Total Energy        Delta E     RMS |[F,P]|

   @RHF iter SAD:   -73.91840937239937   -7.39184e+01   0.00000e+00 
   @RHF iter   1:   -74.87336465594269   -9.54955e-01   3.97455e-02 DIIS
   @RHF iter   2:   -74.93987676125181   -6.65121e-02   8.33002e-03 DIIS
   @RHF iter   3:   -74.94198779297380   -2.11103e-03   1.41873e-03 DIIS
   @RHF iter   4:   -74.94207838071328   -9.05877e-05   1.30976e-04 DIIS
   @RHF iter   5:   -74.94207981227558   -1.43156e-06   3.00931e-05 DIIS
   @RHF iter   6:   -74.94207989866888   -8.63933e-08   3.83470e-07 DIIS
   @RHF iter   7:   -74.94207989868094   -1.20650e-11   1.48346e-09 DIIS
   @RHF iter   8:   -74.94207989868092    2.84217e-14   6.38577e-12 DIIS
   @RHF iter   9:   -74.94207989868094   -2.84217e-14   2.86159e-14 DIIS
   @RHF iter  10:   -74.94207989868096   -1.42109e-14   1.27315e-14 DIIS
   @RHF iter  11:   -74.94207989868089    7.10543e-14   7.00135e-15 DIIS
   @RHF iter  12:   -74.94207989868090   -1.42109e-14   5.53276e-15 DIIS
   @RHF iter  13:   -74.94207989868090    0.00000e+00   3.96206e-15 DIIS
  Energy and wave function converged.


  ==> Post-Iterations <==

    Orbital Energies [Eh]
    ---------------------

    Doubly Occupied:                                                      

       1A    -20.262892     2A     -1.209697     3A     -0.547965  
       4A     -0.436527     5A     -0.387587  

    Virtual:                                                              

       6A      0.477619     7A      0.588139  

    Final Occupation by Irrep:
              A 
    DOCC [     5 ]

  @RHF Final Energy:   -74.94207989868090

   => Energetics <=

    Nuclear Repulsion Energy =              8.0023664821734215
    One-Electron Energy =                -120.1995577635353385
    Two-Electron Energy =                  37.2551113826810081
    Total Energy =                        -74.9420798986809018

Computation Completed


Properties will be evaluated at   0.000000,   0.000000,   0.000000 [a0]

Properties computed using the SCF density matrix

  Nuclear Dipole Moment: [e a0]
     X:     0.0000      Y:     0.0000      Z:     1.1273

  Electronic Dipole Moment: [e a0]
     X:     0.0000      Y:    -0.0000      Z:    -0.5238

  Dipole Moment: [e a0]
     X:     0.0000      Y:    -0.0000      Z:     0.6035     Total:     0.6035

  Dipole Moment: [D]
     X:     0.0000      Y:    -0.0000      Z:     1.5340     Total:     1.5340


*** tstop() called on ws-b14-mmd at Thu Nov 21 05:51:17 2019
Module time:
	user time   =       0.36 seconds =       0.01 minutes
	system time =       0.00 seconds =       0.00 minutes
	total time  =          1 seconds =       0.02 minutes
Total time:
	user time   =       4.30 seconds =       0.07 minutes
	system time =       0.03 seconds =       0.00 minutes
	total time  =          5 seconds =       0.08 minutes
 MINTS: Wrapper to libmints.
   by Justin Turney

   Calculation information:
      Number of threads:                 1
      Number of atoms:                   3
      Number of AO shells:               5
      Number of SO shells:               5
      Number of primitives:             15
      Number of atomic orbitals:         7
      Number of basis functions:         7

      Number of irreps:                  1
      Integral cutoff                 0.00e+00
      Number of functions per irrep: [   7 ]

 OEINTS: Overlap, kinetic, potential, dipole, and quadrupole integrals
         stored in file 35.

      Computing two-electron integrals...done
      Computed 231 non-zero two-electron integrals.
        Stored in file 33.


*** tstart() called on ws-b14-mmd
*** at Thu Nov 21 05:51:17 2019


	Wfn Parameters:
	--------------------
	Wavefunction         = CCSD
	Number of irreps     = 1
	Number of MOs        = 7
	Number of active MOs = 7
	AO-Basis             = NONE
	Semicanonical        = false
	Reference            = RHF
	Print Level          = 1

	IRREP	# MOs	# FZDC	# DOCC	# SOCC	# VIRT	# FZVR
	-----	-----	------	------	------	------	------
	 A	   7	    0	    5	    0	    2	    0
	Transforming integrals...
	IWL integrals will be deleted.
	(OO|OO)...
	Presorting SO-basis two-electron integrals.
	Sorting File: SO Ints (nn|nn) nbuckets = 1
	Transforming the one-electron integrals and constructing Fock matrices
	Starting first half-transformation.
	Sorting half-transformed integrals.
	First half integral transformation complete.
	Starting second half-transformation.
	Two-electron integral transformation complete.
	(OO|OV)...
	Starting second half-transformation.
	Two-electron integral transformation complete.
	(OO|VV)...
	Starting second half-transformation.
	Two-electron integral transformation complete.
	(OV|OO)...
	Starting first half-transformation.
	Sorting half-transformed integrals.
	First half integral transformation complete.
	Starting second half-transformation.
	Two-electron integral transformation complete.
	(OV|OV)...
	Starting second half-transformation.
	Two-electron integral transformation complete.
	(OV|VV)...
	Starting second half-transformation.
	Two-electron integral transformation complete.
	(VV|OO)...
	Starting first half-transformation.
	Sorting half-transformed integrals.
	First half integral transformation complete.
	Starting second half-transformation.
	Two-electron integral transformation complete.
	(VV|OV)...
	Starting second half-transformation.
	Two-electron integral transformation complete.
	(VV|VV)...
	Starting second half-transformation.
	Two-electron integral transformation complete.
	Frozen core energy     =      0.00000000000000

	Size of irrep 0 of <ab|cd> integrals:      0.000 (MW) /      0.000 (MB)
	Total:                                     0.000 (MW) /      0.000 (MB)

	Size of irrep 0 of <ia|bc> integrals:      0.000 (MW) /      0.000 (MB)
	Total:                                     0.000 (MW) /      0.000 (MB)

	Size of irrep 0 of tijab amplitudes:       0.000 (MW) /      0.001 (MB)
	Total:                                     0.000 (MW) /      0.001 (MB)

	Nuclear Rep. energy          =      8.00236648217342
	SCF energy                   =    -74.94207989868090
	One-electron energy          =   -120.19955776353530
	Two-electron energy          =     37.25511138268099
	Reference energy             =    -74.94207989868087

*** tstop() called on ws-b14-mmd at Thu Nov 21 05:51:17 2019
Module time:
	user time   =       0.01 seconds =       0.00 minutes
	system time =       0.01 seconds =       0.00 minutes
	total time  =          0 seconds =       0.00 minutes
Total time:
	user time   =       4.33 seconds =       0.07 minutes
	system time =       0.04 seconds =       0.00 minutes
	total time  =          5 seconds =       0.08 minutes
            **************************
            *                        *
            *        CCENERGY        *
            *                        *
            **************************

    Nuclear Rep. energy (wfn)     =    8.002366482173422
    SCF energy          (wfn)     =  -74.942079898680902
    Reference energy    (file100) =  -74.942079898680873

    Input parameters:
    -----------------
    Wave function   =     CCSD
    Reference wfn   =     RHF
    Brueckner       =     No
    Memory (Mbytes) =     524.3
    Maxiter         =     50
    R_Convergence   =     1.0e-07
    E_Convergence   =     1.0e-14
    Restart         =     Yes
    DIIS            =     Yes
    AO Basis        =     NONE
    ABCD            =     NEW
    Cache Level     =     2
    Cache Type      =     LOW
    Print Level     =     1
    Num. of threads =     1
    # Amps to Print =     10
    Print MP2 Amps? =     No
    Analyze T2 Amps =     No
    Print Pair Ener =     No
    Local CC        =     No
    SCS-MP2         =     False
    SCSN-MP2        =     False
    SCS-CCSD        =     False

MP2 correlation energy -0.0491496448038504
                Solving CC Amplitude Equations
                ------------------------------
  Iter             Energy              RMS        T1Diag      D1Diag    New D1Diag    D2Diag
  ----     ---------------------    ---------   ----------  ----------  ----------   --------
     0        -0.049149644803850    0.000e+00    0.000000    0.000000    0.000000    0.102474
     1        -0.062758217304802    4.725e-02    0.003144    0.009400    0.009400    0.132933
     2        -0.070310525399216    1.931e-02    0.005919    0.018307    0.018307    0.153666
     3        -0.070644648916904    3.023e-03    0.006662    0.020861    0.020861    0.155655
     4        -0.070692726836676    9.187e-04    0.006983    0.021935    0.021935    0.155857
     5        -0.070677586496363    1.044e-04    0.007008    0.022017    0.022017    0.155795
     6        -0.070680414426730    1.874e-05    0.007010    0.022027    0.022027    0.155799
     7        -0.070680003343605    3.351e-06    0.007010    0.022025    0.022025    0.155797
     8        -0.070680109720240    5.565e-07    0.007010    0.022025    0.022025    0.155797
     9        -0.070680100166228    1.019e-07    0.007010    0.022025    0.022025    0.155797
    10        -0.070680101703941    3.775e-08    0.007010    0.022025    0.022025    0.155797
    11        -0.070680102066824    7.722e-09    0.007010    0.022025    0.022025    0.155797
    12        -0.070680102089570    8.222e-10    0.007010    0.022025    0.022025    0.155797
    13        -0.070680102076769    1.218e-10    0.007010    0.022025    0.022025    0.155797
    14        -0.070680102078657    3.888e-11    0.007010    0.022025    0.022025    0.155797
    15        -0.070680102078504    9.432e-12    0.007010    0.022025    0.022025    0.155797
    16        -0.070680102078516    1.377e-12    0.007010    0.022025    0.022025    0.155797
    17        -0.070680102078564    2.568e-13    0.007010    0.022025    0.022025    0.155797
    18        -0.070680102078578    8.340e-14    0.007010    0.022025    0.022025    0.155797
    19        -0.070680102078575    1.465e-14    0.007010    0.022025    0.022025    0.155797
    20        -0.070680102078575    2.648e-15    0.007010    0.022025    0.022025    0.155797

    Iterations converged.


    Largest TIA Amplitudes:
              3   0         0.0217781303
              1   0         0.0032898450
              2   1        -0.0025010763
              0   0         0.0000489094

    Largest TIjAb Amplitudes:
      2   2   1   1        -0.1001570557
      3   3   0   0        -0.0798184048
      2   3   1   0         0.0722548718
      3   2   0   1         0.0722548718
      2   2   0   0        -0.0584531917
      3   3   1   1        -0.0553799378
      2   3   0   1         0.0553648452
      3   2   1   0         0.0553648452
      1   3   0   0         0.0386747522
      3   1   0   0         0.0386747522

    SCF energy       (wfn)                    =  -74.942079898680902
    Reference energy (file100)                =  -74.942079898680873

    Opposite-spin MP2 correlation energy      =   -0.046043423084074
    Same-spin MP2 correlation energy          =   -0.003106221719777
    MP2 correlation energy                    =   -0.049149644803850
      * MP2 total energy                      =  -74.991229543484721

    Opposite-spin CCSD correlation energy     =   -0.068403428538855
    Same-spin CCSD correlation energy         =   -0.002276673539721
    CCSD correlation energy                   =   -0.070680102078575
      * CCSD total energy                     =  -75.012760000759442


*** tstart() called on ws-b14-mmd
*** at Thu Nov 21 05:51:17 2019

   => Loading Basis Set <=

    Name: STO-3G
    Role: ORBITAL
    Keyword: BASIS
    atoms 1   entry O          line    81 file /home/mmd01986/anaconda3/envs/psi4/share/psi4/basis/sto-3g.gbs 
    atoms 2-3 entry H          line    19 file /home/mmd01986/anaconda3/envs/psi4/share/psi4/basis/sto-3g.gbs 


         ---------------------------------------------------------
                                   SCF
               by Justin Turney, Rob Parrish, Andy Simmonett
                          and Daniel G. A. Smith
                              RHF Reference
                        1 Threads,    500 MiB Core
         ---------------------------------------------------------

  ==> Geometry <==

    Molecular point group: c1
    Full point group: C2v

    Geometry (in Angstrom), charge = 0, multiplicity = 1:

       Center              X                  Y                   Z               Mass       
    ------------   -----------------  -----------------  -----------------  -----------------
         O            0.000000000000     0.000000000000    -0.075791843599    15.994914619570
         H            0.000000000000    -0.866811828967     0.601435779259     1.007825032230
         H            0.000000000000     0.866811828967     0.601435779259     1.007825032230

  Running in c1 symmetry.

  Rotational constants: A =     20.53324  B =     11.13094  C =      7.21807 [cm^-1]
  Rotational constants: A = 615570.98071  B = 333697.07813  C = 216392.23582 [MHz]
  Nuclear repulsion =    8.002366482173422

  Charge       = 0
  Multiplicity = 1
  Electrons    = 10
  Nalpha       = 5
  Nbeta        = 5

  ==> Algorithm <==

  SCF Algorithm Type is PK.
  DIIS enabled.
  MOM disabled.
  Fractional occupation disabled.
  Guess Type is SAD.
  Energy threshold   = 1.00e-14
  Density threshold  = 1.00e-14
  Integral threshold = 0.00e+00

  ==> Primary Basis <==

  Basis Set: STO-3G
    Blend: STO-3G
    Number of shells: 5
    Number of basis function: 7
    Number of Cartesian functions: 7
    Spherical Harmonics?: true
    Max angular momentum: 1

  ==> Pre-Iterations <==

   -------------------------------------------------------
    Irrep   Nso     Nmo     Nalpha   Nbeta   Ndocc  Nsocc
   -------------------------------------------------------
     A          7       7       0       0       0       0
   -------------------------------------------------------
    Total       7       7       5       5       5       0
   -------------------------------------------------------

  ==> Integral Setup <==

  Using in-core PK algorithm.
   Calculation information:
      Number of atoms:                   3
      Number of AO shells:               5
      Number of primitives:             15
      Number of atomic orbitals:         7
      Number of basis functions:         7

      Integral cutoff                 1.00e-12
      Number of threads:                 1

  Performing in-core PK
  Using 812 doubles for integral storage.
  We computed 120 shell quartets total.
  Whereas there are 120 unique shell quartets.

  ==> DiskJK: Disk-Based J/K Matrices <==

    J tasked:                  Yes
    K tasked:                  Yes
    wK tasked:                  No
    Memory [MiB]:              375
    Schwarz Cutoff:          1E-12

    OpenMP threads:              1

  Minimum eigenvalue in the overlap matrix is 4.3422219609E-01.
  Using Symmetric Orthogonalization.

  SCF Guess: Superposition of Atomic Densities via on-the-fly atomic UHF.

  ==> Iterations <==

                        Total Energy        Delta E     RMS |[F,P]|

   @RHF iter SAD:   -73.91840937239937   -7.39184e+01   0.00000e+00 
   @RHF iter   1:   -74.87336465594269   -9.54955e-01   3.97455e-02 DIIS
   @RHF iter   2:   -74.93987676125184   -6.65121e-02   8.33002e-03 DIIS
   @RHF iter   3:   -74.94198779297378   -2.11103e-03   1.41873e-03 DIIS
   @RHF iter   4:   -74.94207838071333   -9.05877e-05   1.30976e-04 DIIS
   @RHF iter   5:   -74.94207981227567   -1.43156e-06   3.00931e-05 DIIS
   @RHF iter   6:   -74.94207989866891   -8.63932e-08   3.83470e-07 DIIS
   @RHF iter   7:   -74.94207989868096   -1.20508e-11   1.48346e-09 DIIS
   @RHF iter   8:   -74.94207989868092    4.26326e-14   6.38622e-12 DIIS
   @RHF iter   9:   -74.94207989868087    4.26326e-14   2.88774e-14 DIIS
   @RHF iter  10:   -74.94207989868096   -8.52651e-14   1.30508e-14 DIIS
   @RHF iter  11:   -74.94207989868093    2.84217e-14   8.09994e-15 DIIS
   @RHF iter  12:   -74.94207989868093    0.00000e+00   6.09807e-15 DIIS
  Energy and wave function converged.


  ==> Post-Iterations <==

    Orbital Energies [Eh]
    ---------------------

    Doubly Occupied:                                                      

       1A    -20.262892     2A     -1.209697     3A     -0.547965  
       4A     -0.436527     5A     -0.387587  

    Virtual:                                                              

       6A      0.477619     7A      0.588139  

    Final Occupation by Irrep:
              A 
    DOCC [     5 ]

  @RHF Final Energy:   -74.94207989868093

   => Energetics <=

    Nuclear Repulsion Energy =              8.0023664821734215
    One-Electron Energy =                -120.1995577635353527
    Two-Electron Energy =                  37.2551113826810010
    Total Energy =                        -74.9420798986809302

Computation Completed


Properties will be evaluated at   0.000000,   0.000000,   0.000000 [a0]

Properties computed using the SCF density matrix

  Nuclear Dipole Moment: [e a0]
     X:     0.0000      Y:     0.0000      Z:     1.1273

  Electronic Dipole Moment: [e a0]
     X:     0.0000      Y:    -0.0000      Z:    -0.5238

  Dipole Moment: [e a0]
     X:     0.0000      Y:    -0.0000      Z:     0.6035     Total:     0.6035

  Dipole Moment: [D]
     X:     0.0000      Y:    -0.0000      Z:     1.5340     Total:     1.5340


*** tstop() called on ws-b14-mmd at Thu Nov 21 05:51:17 2019
Module time:
	user time   =       0.37 seconds =       0.01 minutes
	system time =       0.00 seconds =       0.00 minutes
	total time  =          0 seconds =       0.00 minutes
Total time:
	user time   =       4.78 seconds =       0.08 minutes
	system time =       0.14 seconds =       0.00 minutes
	total time  =          5 seconds =       0.08 minutes
 MINTS: Wrapper to libmints.
   by Justin Turney

   Calculation information:
      Number of threads:                 1
      Number of atoms:                   3
      Number of AO shells:               5
      Number of SO shells:               5
      Number of primitives:             15
      Number of atomic orbitals:         7
      Number of basis functions:         7

      Number of irreps:                  1
      Integral cutoff                 0.00e+00
      Number of functions per irrep: [   7 ]

 OEINTS: Overlap, kinetic, potential, dipole, and quadrupole integrals
         stored in file 35.

      Computing two-electron integrals...done
      Computed 231 non-zero two-electron integrals.
        Stored in file 33.


*** tstart() called on ws-b14-mmd
*** at Thu Nov 21 05:51:17 2019


	Wfn Parameters:
	--------------------
	Wavefunction         = CCSD_T
	Number of irreps     = 1
	Number of MOs        = 7
	Number of active MOs = 7
	AO-Basis             = NONE
	Semicanonical        = false
	Reference            = RHF
	Print Level          = 1

	IRREP	# MOs	# FZDC	# DOCC	# SOCC	# VIRT	# FZVR
	-----	-----	------	------	------	------	------
	 A	   7	    0	    5	    0	    2	    0
	Transforming integrals...
	IWL integrals will be deleted.
	(OO|OO)...
	Presorting SO-basis two-electron integrals.
	Sorting File: SO Ints (nn|nn) nbuckets = 1
	Transforming the one-electron integrals and constructing Fock matrices
	Starting first half-transformation.
	Sorting half-transformed integrals.
	First half integral transformation complete.
	Starting second half-transformation.
	Two-electron integral transformation complete.
	(OO|OV)...
	Starting second half-transformation.
	Two-electron integral transformation complete.
	(OO|VV)...
	Starting second half-transformation.
	Two-electron integral transformation complete.
	(OV|OO)...
	Starting first half-transformation.
	Sorting half-transformed integrals.
	First half integral transformation complete.
	Starting second half-transformation.
	Two-electron integral transformation complete.
	(OV|OV)...
	Starting second half-transformation.
	Two-electron integral transformation complete.
	(OV|VV)...
	Starting second half-transformation.
	Two-electron integral transformation complete.
	(VV|OO)...
	Starting first half-transformation.
	Sorting half-transformed integrals.
	First half integral transformation complete.
	Starting second half-transformation.
	Two-electron integral transformation complete.
	(VV|OV)...
	Starting second half-transformation.
	Two-electron integral transformation complete.
	(VV|VV)...
	Starting second half-transformation.
	Two-electron integral transformation complete.
	Frozen core energy     =      0.00000000000000

	Size of irrep 0 of <ab|cd> integrals:      0.000 (MW) /      0.000 (MB)
	Total:                                     0.000 (MW) /      0.000 (MB)

	Size of irrep 0 of <ia|bc> integrals:      0.000 (MW) /      0.000 (MB)
	Total:                                     0.000 (MW) /      0.000 (MB)

	Size of irrep 0 of tijab amplitudes:       0.000 (MW) /      0.001 (MB)
	Total:                                     0.000 (MW) /      0.001 (MB)

	Nuclear Rep. energy          =      8.00236648217342
	SCF energy                   =    -74.94207989868093
	One-electron energy          =   -120.19955776353521
	Two-electron energy          =     37.25511138268096
	Reference energy             =    -74.94207989868084

*** tstop() called on ws-b14-mmd at Thu Nov 21 05:51:17 2019
Module time:
	user time   =       0.00 seconds =       0.00 minutes
	system time =       0.01 seconds =       0.00 minutes
	total time  =          0 seconds =       0.00 minutes
Total time:
	user time   =       4.80 seconds =       0.08 minutes
	system time =       0.16 seconds =       0.00 minutes
	total time  =          5 seconds =       0.08 minutes
            **************************
            *                        *
            *        CCENERGY        *
            *                        *
            **************************

    Nuclear Rep. energy (wfn)     =    8.002366482173422
    SCF energy          (wfn)     =  -74.942079898680930
    Reference energy    (file100) =  -74.942079898680845

    Input parameters:
    -----------------
    Wave function   =     CCSD_T
    Reference wfn   =     RHF
    Brueckner       =     No
    Memory (Mbytes) =     524.3
    Maxiter         =     50
    R_Convergence   =     1.0e-07
    E_Convergence   =     1.0e-14
    Restart         =     Yes
    DIIS            =     Yes
    AO Basis        =     NONE
    ABCD            =     NEW
    Cache Level     =     2
    Cache Type      =     LOW
    Print Level     =     1
    Num. of threads =     1
    # Amps to Print =     10
    Print MP2 Amps? =     No
    Analyze T2 Amps =     No
    Print Pair Ener =     No
    Local CC        =     No
    SCS-MP2         =     False
    SCSN-MP2        =     False
    SCS-CCSD        =     False

    Using old T1 amplitudes.
    Using old T2 amplitudes.

MP2 correlation energy -0.0491496448038501
                Solving CC Amplitude Equations
                ------------------------------
  Iter             Energy              RMS        T1Diag      D1Diag    New D1Diag    D2Diag
  ----     ---------------------    ---------   ----------  ----------  ----------   --------
     0        -0.070680102078575    0.000e+00    0.007010    0.022025    0.022025    0.155797
     1        -0.070680102078575    6.967e-15    0.007010    0.022025    0.022025    0.155797
     2        -0.070680102078575    2.692e-15    0.007010    0.022025    0.022025    0.155797

    Iterations converged.


    Largest TIA Amplitudes:
              3   0         0.0217781303
              1   0         0.0032898450
              2   1        -0.0025010763
              0   0         0.0000489094

    Largest TIjAb Amplitudes:
      2   2   1   1        -0.1001570557
      3   3   0   0        -0.0798184048
      2   3   1   0         0.0722548718
      3   2   0   1         0.0722548718
      2   2   0   0        -0.0584531917
      3   3   1   1        -0.0553799378
      2   3   0   1         0.0553648452
      3   2   1   0         0.0553648452
      1   3   0   0         0.0386747522
      3   1   0   0         0.0386747522

    SCF energy       (wfn)                    =  -74.942079898680930
    Reference energy (file100)                =  -74.942079898680845

    Opposite-spin MP2 correlation energy      =   -0.046043423084073
    Same-spin MP2 correlation energy          =   -0.003106221719777
    MP2 correlation energy                    =   -0.049149644803850
      * MP2 total energy                      =  -74.991229543484692

    Opposite-spin CCSD correlation energy     =   -0.068403428538854
    Same-spin CCSD correlation energy         =   -0.002276673539721
    CCSD correlation energy                   =   -0.070680102078575
      * CCSD total energy                     =  -75.012760000759414

            **************************
            *                        *
            *        CCTRIPLES       *
            *                        *
            **************************


    Wave function   =    CCSD_T
    Reference wfn   =      RHF

    Nuclear Rep. energy (wfn)                =    8.002366482173422
    SCF energy          (wfn)                =  -74.942079898680930
    Reference energy    (file100)            =  -74.942079898680845
    CCSD energy         (file100)            =   -0.070680102078575
    Total CCSD energy   (file100)            =  -75.012760000759414

    Number of ijk index combinations:               35
    Memory available in words        :        65536000
    ~Words needed per explicit thread:              32
    Number of threads for explicit ijk threading:    1

    MKL num_threads set to 1 for explicit threading.

    (T) energy                                =   -0.000099877296028
      * CCSD(T) total energy                  =  -75.012859878055451


    Psi4 stopped on: Thursday, 21 November 2019 05:51AM
    Psi4 wall time for execution: 0:00:05.06

*** Psi4 exiting successfully. Buy a developer a beer!
