
    -----------------------------------------------------------------------
          Psi4: An Open-Source Ab Initio Electronic Structure Package
                               Psi4 1.4a2.dev138 

                         Git: Rev {master} aa2bb28 


    R. M. Parrish, L. A. Burns, D. G. A. Smith, A. C. Simmonett,
    A. E. DePrince III, E. G. Hohenstein, U. Bozkaya, A. Yu. Sokolov,
    R. Di Remigio, R. M. Richard, J. F. Gonthier, A. M. James,
    H. R. McAlexander, A. Kumar, M. Saitow, X. Wang, B. P. Pritchard,
    P. Verma, H. F. Schaefer III, K. Patkowski, R. A. King, E. F. Valeev,
    F. A. Evangelista, J. M. Turney, T. D. Crawford, and C. D. Sherrill,
    J. Chem. Theory Comput. 13(7) pp 3185--3197 (2017).
    (doi: 10.1021/acs.jctc.7b00174)


                         Additional Contributions by
    P. Kraus, H. Kruse, M. H. Lechner, M. C. Schieber, R. A. Shaw,
    A. Alenaizan, R. Galvelis, Z. L. Glick, S. Lehtola, and J. P. Misiewicz

    -----------------------------------------------------------------------


    Psi4 started on: Sunday, 24 November 2019 01:12AM

    Process ID: 25546
    Host:       ws-b14-mmd
    PSIDATADIR: /home/mmd01986/anaconda3/envs/psi4/share/psi4
    Memory:     500.0 MiB
    Threads:    6
    
  ==> Input File <==

--------------------------------------------------------------------------

# PYTHONPATH must include directory above plugin directory.
#     Define either externally or here, then import plugin.
memory 8 GB
sys.path.insert(0, './..')
import ddcc

#molecule {
#pubchem:formaldehyde
#symmetry c1
#}
molecule {
O
H 1 R
H 1 R 2 A

R = 1.1
A = 104.0
symmetry c1
}

set {
  basis 3-21G
}

set ddcc {
  print 1
}
set do_triples true
set pertd true
set scf_type pk
set mp2_type conv
set E_CONVERGENCE 10
set D_CONVERGENCE 10

e = energy('myccsd')
#er = energy('scf')
#e1 = energy('mp2')
#print("MP2 Energy (Psi4) ",e1 - er)
#e2 = energy('ccsd')
#e3 = energy('ccsd(t)')
#print("CCSD Energy (Psi4) ",e2 - er)
#print("(T) Energy (Psi4) ",e3 - e2)
--------------------------------------------------------------------------

  Memory set to   7.451 GiB by Python driver.

*** tstart() called on ws-b14-mmd
*** at Sun Nov 24 01:12:16 2019

   => Loading Basis Set <=

    Name: 3-21G
    Role: ORBITAL
    Keyword: BASIS
    atoms 1   entry O          line    90 file /home/mmd01986/anaconda3/envs/psi4/share/psi4/basis/3-21g.gbs 
    atoms 2-3 entry H          line    21 file /home/mmd01986/anaconda3/envs/psi4/share/psi4/basis/3-21g.gbs 


         ---------------------------------------------------------
                                   SCF
               by Justin Turney, Rob Parrish, Andy Simmonett
                          and Daniel G. A. Smith
                              RHF Reference
                        6 Threads,   7629 MiB Core
         ---------------------------------------------------------

  ==> Geometry <==

    Molecular point group: c1
    Full point group: C2v

    Geometry (in Angstrom), charge = 0, multiplicity = 1:

       Center              X                  Y                   Z               Mass       
    ------------   -----------------  -----------------  -----------------  -----------------
         O            0.000000000000     0.000000000000    -0.075791843599    15.994914619570
         H            0.000000000000    -0.866811828967     0.601435779259     1.007825032230
         H            0.000000000000     0.866811828967     0.601435779259     1.007825032230

  Running in c1 symmetry.

  Rotational constants: A =     20.53324  B =     11.13094  C =      7.21807 [cm^-1]
  Rotational constants: A = 615570.98071  B = 333697.07813  C = 216392.23582 [MHz]
  Nuclear repulsion =    8.002366482173422

  Charge       = 0
  Multiplicity = 1
  Electrons    = 10
  Nalpha       = 5
  Nbeta        = 5

  ==> Algorithm <==

  SCF Algorithm Type is PK.
  DIIS enabled.
  MOM disabled.
  Fractional occupation disabled.
  Guess Type is SAD.
  Energy threshold   = 1.00e-10
  Density threshold  = 1.00e-10
  Integral threshold = 0.00e+00

  ==> Primary Basis <==

  Basis Set: 3-21G
    Blend: 3-21G
    Number of shells: 9
    Number of basis function: 13
    Number of Cartesian functions: 13
    Spherical Harmonics?: false
    Max angular momentum: 1

  ==> Pre-Iterations <==

   -------------------------------------------------------
    Irrep   Nso     Nmo     Nalpha   Nbeta   Ndocc  Nsocc
   -------------------------------------------------------
     A         13      13       0       0       0       0
   -------------------------------------------------------
    Total      13      13       5       5       5       0
   -------------------------------------------------------

  ==> Integral Setup <==

  Using in-core PK algorithm.
   Calculation information:
      Number of atoms:                   3
      Number of AO shells:               9
      Number of primitives:             15
      Number of atomic orbitals:        13
      Number of basis functions:        13

      Integral cutoff                 1.00e-12
      Number of threads:                 6

  Performing in-core PK
  Using 8372 doubles for integral storage.
  We computed 1608 shell quartets total.
  Whereas there are 1035 unique shell quartets.
    55.36 percent of shell quartets recomputed by reordering.

  ==> DiskJK: Disk-Based J/K Matrices <==

    J tasked:                  Yes
    K tasked:                  Yes
    wK tasked:                  No
    Memory [MiB]:             5722
    Schwarz Cutoff:          1E-12

    OpenMP threads:              6

  Minimum eigenvalue in the overlap matrix is 1.3612523917E-01.
  Using Symmetric Orthogonalization.

  SCF Guess: Superposition of Atomic Densities via on-the-fly atomic UHF.

  ==> Iterations <==

                        Total Energy        Delta E     RMS |[F,P]|

   @RHF iter SAD:   -74.90492822758213   -7.49049e+01   0.00000e+00 
   @RHF iter   1:   -75.48257575610580   -5.77648e-01   2.97058e-02 DIIS
   @RHF iter   2:   -75.54269175549372   -6.01160e-02   1.94275e-02 DIIS
   @RHF iter   3:   -75.56064670039299   -1.79549e-02   2.34461e-03 DIIS
   @RHF iter   4:   -75.56129604605195   -6.49346e-04   3.84109e-04 DIIS
   @RHF iter   5:   -75.56131206527996   -1.60192e-05   4.18860e-05 DIIS
   @RHF iter   6:   -75.56131249376246   -4.28482e-07   1.49738e-05 DIIS
   @RHF iter   7:   -75.56131256741311   -7.36507e-08   2.48062e-06 DIIS
   @RHF iter   8:   -75.56131256937410   -1.96098e-09   2.97340e-07 DIIS
   @RHF iter   9:   -75.56131256938571   -1.16103e-11   1.99302e-08 DIIS
   @RHF iter  10:   -75.56131256938582   -1.13687e-13   9.59472e-10 DIIS
   @RHF iter  11:   -75.56131256938585   -2.84217e-14   6.52083e-11 DIIS
  Energy and wave function converged.


  ==> Post-Iterations <==

    Orbital Energies [Eh]
    ---------------------

    Doubly Occupied:                                                      

       1A    -20.458044     2A     -1.270837     3A     -0.616359  
       4A     -0.519138     5A     -0.476907  

    Virtual:                                                              

       6A      0.216077     7A      0.306617     8A      1.141851  
       9A      1.167425    10A      1.778504    11A      1.898088  
      12A      2.023195    13A      3.012221  

    Final Occupation by Irrep:
              A 
    DOCC [     5 ]

  @RHF Final Energy:   -75.56131256938585

   => Energetics <=

    Nuclear Repulsion Energy =              8.0023664821734215
    One-Electron Energy =                -120.4447878709506767
    Two-Electron Energy =                  36.8811088193914145
    Total Energy =                        -75.5613125693858478

Computation Completed


Properties will be evaluated at   0.000000,   0.000000,   0.000000 [a0]

Properties computed using the SCF density matrix

  Nuclear Dipole Moment: [e a0]
     X:     0.0000      Y:     0.0000      Z:     1.1273

  Electronic Dipole Moment: [e a0]
     X:     0.0000      Y:    -0.0000      Z:    -0.1776

  Dipole Moment: [e a0]
     X:     0.0000      Y:    -0.0000      Z:     0.9497     Total:     0.9497

  Dipole Moment: [D]
     X:     0.0000      Y:    -0.0000      Z:     2.4139     Total:     2.4139


*** tstop() called on ws-b14-mmd at Sun Nov 24 01:12:17 2019
Module time:
	user time   =       2.17 seconds =       0.04 minutes
	system time =       0.05 seconds =       0.00 minutes
	total time  =          1 seconds =       0.02 minutes
Total time:
	user time   =       2.17 seconds =       0.04 minutes
	system time =       0.05 seconds =       0.00 minutes
	total time  =          1 seconds =       0.02 minutes
 MINTS: Wrapper to libmints.
   by Justin Turney

   Calculation information:
      Number of threads:                 6
      Number of atoms:                   3
      Number of AO shells:               9
      Number of SO shells:               9
      Number of primitives:             15
      Number of atomic orbitals:        13
      Number of basis functions:        13

      Number of irreps:                  1
      Integral cutoff                 0.00e+00
      Number of functions per irrep: [  13 ]

 OEINTS: Overlap, kinetic, potential, dipole, and quadrupole integrals
         stored in file 35.

      Computing two-electron integrals...done
      Computed 2280 non-zero two-electron integrals.
        Stored in file 33.


Reading options from the CCSD block
Calling plugin ccsd.so.


--------------
<<-- CCSD -->>
--------------

DO_TRIPLES 1
E[MP2   ]    -0.13332793806246
E[CC;  0]    -0.13332793806246
E[CC;  1]    -0.13610983423458
E[CC;  2]    -0.14013337439351
E[CC;  3]    -0.14132129720099
E[CC;  4]    -0.14186185853172
E[CC;  5]    -0.14209443108705
E[CC;  6]    -0.14220145043049
E[CC;  7]    -0.14225184121860
E[CC;  8]    -0.14227629826788
E[CC;  9]    -0.14228847086302
E[CC; 10]    -0.14229467675306
E[CC; 11]    -0.14229791049082
E[CC; 12]    -0.14229962904671
E[CC; 13]    -0.14230055836880
E[CC; 14]    -0.14230106851240
E[CC; 15]    -0.14230135214525
E[CC; 16]    -0.14230151153147
E[CC; 17]    -0.14230160189013
E[CC; 18]    -0.14230165348664
E[CC; 19]    -0.14230168312270
E[CC; 20]    -0.14230170022638
E[CC; 21]    -0.14230171013556
E[CC; 22]    -0.14230171589460
E[CC; 23]    -0.14230171925022
E[CC; 24]    -0.14230172120954
E[CC; 25]    -0.14230172235556
E[CC; 26]    -0.14230172302682
E[CC; 27]    -0.14230172342048
E[CC; 28]    -0.14230172365157
E[CC; 29]    -0.14230172378734
E[CC; 30]    -0.14230172386716
E[CC; 31]    -0.14230172391413
E[CC; 32]    -0.14230172394177
E[CC; 33]    -0.14230172395805
E[CC; 34]    -0.14230172396764
E[CC; 35]    -0.14230172397329
E[CC; 36]    -0.14230172397663
E[CC; 37]    -0.14230172397859
E[CC; 38]    -0.14230172397975
E[CC; 39]    -0.14230172398043
E[CC; 40]    -0.14230172398084
E[CC; 41]    -0.14230172398108
E[CC; 42]    -0.14230172398122
E[CC; 43]    -0.14230172398130
E[CC; 44]    -0.14230172398135
E[CC; 45]    -0.14230172398138
E[CC; 46]    -0.14230172398140
E[CC; 47]    -0.14230172398141

E[CC;final]    -0.14230172398141
E[(T)]    -0.00210599394279

    Psi4 stopped on: Sunday, 24 November 2019 01:13AM
    Psi4 wall time for execution: 0:00:58.02

*** Psi4 exiting successfully. Buy a developer a beer!
