
    -----------------------------------------------------------------------
          Psi4: An Open-Source Ab Initio Electronic Structure Package
                               Psi4 1.3.2 release

                         Git: Rev {HEAD} ecbda83 


    R. M. Parrish, L. A. Burns, D. G. A. Smith, A. C. Simmonett,
    A. E. DePrince III, E. G. Hohenstein, U. Bozkaya, A. Yu. Sokolov,
    R. Di Remigio, R. M. Richard, J. F. Gonthier, A. M. James,
    H. R. McAlexander, A. Kumar, M. Saitow, X. Wang, B. P. Pritchard,
    P. Verma, H. F. Schaefer III, K. Patkowski, R. A. King, E. F. Valeev,
    F. A. Evangelista, J. M. Turney, T. D. Crawford, and C. D. Sherrill,
    J. Chem. Theory Comput. 13(7) pp 3185--3197 (2017).
    (doi: 10.1021/acs.jctc.7b00174)


                         Additional Contributions by
    P. Kraus, H. Kruse, M. H. Lechner, M. C. Schieber, R. A. Shaw,
    A. Alenaizan, R. Galvelis, Z. L. Glick, S. Lehtola, and J. P. Misiewicz

    -----------------------------------------------------------------------


    Psi4 started on: Friday, 22 November 2019 01:57PM

    Process ID: 1539
    Host:       davis-ws
    PSIDATADIR: /home/mmd01986/.conda/envs/p4env/share/psi4
    Memory:     500.0 MiB
    Threads:    1
    
  ==> Input File <==

--------------------------------------------------------------------------

# PYTHONPATH must include directory above plugin directory.
#     Define either externally or here, then import plugin.
memory 8 GB
sys.path.insert(0, './..')
import ddcc

#molecule {
#pubchem:formaldehyde
#symmetry c1
#}
molecule {
O
H 1 R
H 1 R 2 A

R = 1.1
A = 104.0
symmetry c1
}

set {
  basis sto-3g
}

set ddcc {
  print 1
}
set do_triples true
set pertd true
set scf_type pk
set mp2_type conv
set E_CONVERGENCE 10
set D_CONVERGENCE 10

e = energy('mycis')
#er = energy('scf')
#e1 = energy('mp2')
#print("MP2 Energy (Psi4) ",e1 - er)
#e2 = energy('ccsd')
#e3 = energy('ccsd(t)')
#print("CCSD Energy (Psi4) ",e2 - er)
#print("(T) Energy (Psi4) ",e3 - e2)
--------------------------------------------------------------------------

  Memory set to   7.451 GiB by Python driver.

*** tstart() called on davis-ws
*** at Fri Nov 22 13:57:04 2019

   => Loading Basis Set <=

    Name: STO-3G
    Role: ORBITAL
    Keyword: BASIS
    atoms 1   entry O          line    81 file /home/mmd01986/.conda/envs/p4env/share/psi4/basis/sto-3g.gbs 
    atoms 2-3 entry H          line    19 file /home/mmd01986/.conda/envs/p4env/share/psi4/basis/sto-3g.gbs 


         ---------------------------------------------------------
                                   SCF
               by Justin Turney, Rob Parrish, Andy Simmonett
                          and Daniel G. A. Smith
                              RHF Reference
                        1 Threads,   7629 MiB Core
         ---------------------------------------------------------

  ==> Geometry <==

    Molecular point group: c1
    Full point group: C2v

    Geometry (in Angstrom), charge = 0, multiplicity = 1:

       Center              X                  Y                   Z               Mass       
    ------------   -----------------  -----------------  -----------------  -----------------
         O            0.000000000000     0.000000000000    -0.075791843599    15.994914619570
         H            0.000000000000    -0.866811828967     0.601435779259     1.007825032230
         H            0.000000000000     0.866811828967     0.601435779259     1.007825032230

  Running in c1 symmetry.

  Rotational constants: A =     20.53324  B =     11.13094  C =      7.21807 [cm^-1]
  Rotational constants: A = 615570.98071  B = 333697.07813  C = 216392.23582 [MHz]
  Nuclear repulsion =    8.002366482173422

  Charge       = 0
  Multiplicity = 1
  Electrons    = 10
  Nalpha       = 5
  Nbeta        = 5

  ==> Algorithm <==

  SCF Algorithm Type is PK.
  DIIS enabled.
  MOM disabled.
  Fractional occupation disabled.
  Guess Type is SAD.
  Energy threshold   = 1.00e-10
  Density threshold  = 1.00e-10
  Integral threshold = 0.00e+00

  ==> Primary Basis <==

  Basis Set: STO-3G
    Blend: STO-3G
    Number of shells: 5
    Number of basis function: 7
    Number of Cartesian functions: 7
    Spherical Harmonics?: true
    Max angular momentum: 1

  ==> Pre-Iterations <==

   -------------------------------------------------------
    Irrep   Nso     Nmo     Nalpha   Nbeta   Ndocc  Nsocc
   -------------------------------------------------------
     A          7       7       0       0       0       0
   -------------------------------------------------------
    Total       7       7       5       5       5       0
   -------------------------------------------------------

  ==> Integral Setup <==

  Using in-core PK algorithm.
   Calculation information:
      Number of atoms:                   3
      Number of AO shells:               5
      Number of primitives:             15
      Number of atomic orbitals:         7
      Number of basis functions:         7

      Integral cutoff                 1.00e-12
      Number of threads:                 1

  Performing in-core PK
  Using 812 doubles for integral storage.
  We computed 120 shell quartets total.
  Whereas there are 120 unique shell quartets.

  ==> DiskJK: Disk-Based J/K Matrices <==

    J tasked:                  Yes
    K tasked:                  Yes
    wK tasked:                  No
    Memory [MiB]:             5722
    Schwarz Cutoff:          1E-12

    OpenMP threads:              1

  Minimum eigenvalue in the overlap matrix is 4.3422219609E-01.
  Using Symmetric Orthogonalization.

  SCF Guess: Superposition of Atomic Densities via on-the-fly atomic UHF.

  ==> Iterations <==

                        Total Energy        Delta E     RMS |[F,P]|

   @RHF iter SAD:   -73.91840937239937   -7.39184e+01   0.00000e+00 
   @RHF iter   1:   -74.87336465594269   -9.54955e-01   3.97455e-02 DIIS
   @RHF iter   2:   -74.93987676125184   -6.65121e-02   8.33002e-03 DIIS
   @RHF iter   3:   -74.94198779297378   -2.11103e-03   1.41873e-03 DIIS
   @RHF iter   4:   -74.94207838071328   -9.05877e-05   1.30976e-04 DIIS
   @RHF iter   5:   -74.94207981227561   -1.43156e-06   3.00931e-05 DIIS
   @RHF iter   6:   -74.94207989866891   -8.63933e-08   3.83470e-07 DIIS
   @RHF iter   7:   -74.94207989868096   -1.20508e-11   1.48346e-09 DIIS
   @RHF iter   8:   -74.94207989868090    5.68434e-14   6.38703e-12 DIIS
  Energy and wave function converged.


  ==> Post-Iterations <==

    Orbital Energies [Eh]
    ---------------------

    Doubly Occupied:                                                      

       1A    -20.262892     2A     -1.209697     3A     -0.547965  
       4A     -0.436527     5A     -0.387587  

    Virtual:                                                              

       6A      0.477619     7A      0.588139  

    Final Occupation by Irrep:
              A 
    DOCC [     5 ]

  @RHF Final Energy:   -74.94207989868090

   => Energetics <=

    Nuclear Repulsion Energy =              8.0023664821734215
    One-Electron Energy =                -120.1995577633489063
    Two-Electron Energy =                  37.2551113824945901
    Total Energy =                        -74.9420798986809018

Computation Completed


Properties will be evaluated at   0.000000,   0.000000,   0.000000 [a0]

Properties computed using the SCF density matrix

  Nuclear Dipole Moment: [e a0]
     X:     0.0000      Y:     0.0000      Z:     1.1273

  Electronic Dipole Moment: [e a0]
     X:     0.0000      Y:     0.0000      Z:    -0.5238

  Dipole Moment: [e a0]
     X:     0.0000      Y:     0.0000      Z:     0.6035     Total:     0.6035

  Dipole Moment: [D]
     X:     0.0000      Y:     0.0000      Z:     1.5340     Total:     1.5340


*** tstop() called on davis-ws at Fri Nov 22 13:57:05 2019
Module time:
	user time   =       0.31 seconds =       0.01 minutes
	system time =       0.00 seconds =       0.00 minutes
	total time  =          1 seconds =       0.02 minutes
Total time:
	user time   =       0.31 seconds =       0.01 minutes
	system time =       0.00 seconds =       0.00 minutes
	total time  =          1 seconds =       0.02 minutes
 MINTS: Wrapper to libmints.
   by Justin Turney

   Calculation information:
      Number of threads:                 1
      Number of atoms:                   3
      Number of AO shells:               5
      Number of SO shells:               5
      Number of primitives:             15
      Number of atomic orbitals:         7
      Number of basis functions:         7

      Number of irreps:                  1
      Integral cutoff                 0.00e+00
      Number of functions per irrep: [   7 ]

 OEINTS: Overlap, kinetic, potential, dipole, and quadrupole integrals
         stored in file 35.

      Computing two-electron integrals...done
      Computed 231 non-zero two-electron integrals.
        Stored in file 33.


Reading options from the CIS block
Calling plugin cis.so.


-------------------------------------------
<<-- Configuration Interaction Singles -->>
-------------------------------------------

 ( spin-unadapted ) 
 using full diagonalization
 using in-core algorithm
 will do CIS(D) correction

building Hamiltonian matrix ... done!
diagonalize Hamiltonian ... done!
 Excitation energies (a.u.)
 ------------------
    0.28725544193950
    0.28725544193951
    0.28725544193951
    0.34442492022958
    0.34442492022959
    0.34442492022959
    0.35646169692237
    0.36598892717541
    0.36598892717541
    0.36598892717542
    0.39451371537955
    0.39451371537956
    0.39451371537956
    0.41607167152280
    0.50562823025434
    0.51428992387742
    0.51428992387742
    0.51428992387743
    0.55519180937115
    0.56305567492860
    0.56305567492860
    0.56305567492860
    0.65531837252304
    0.91012161548418
    1.10877088303406
    1.10877088303406
    1.10877088303407
    1.20009603732131
    1.20009603732131
    1.20009603732133
    1.30078510881790
    1.32576197708548
   19.95852637214757
   19.95852637214758
   19.95852637214761
   20.01097937499687
   20.01134204099080
   20.01134204099083
   20.01134204099085
   20.05053189402205
 ------------------
 <<---------------------------------->>
                CIS(D)
 perturbative doubles correction to CIS
 <<---------------------------------->>
 Initializing MP2 T2 amplitudes ... Done! 
MP2 energy     0.00000000000000
E[MP2   ]    -0.04914964480384
E[CC;  0]    -0.04914964480384
E[CC;  0]    -0.06275821730480
E[CC;  1]    -0.06739659510038
E[CC;  2]    -0.06922454948945
E[CC;  3]    -0.07000777093203
E[CC;  4]    -0.07036005543189
E[CC;  5]    -0.07052383382852
E[CC;  6]    -0.07060204626938
E[CC;  7]    -0.07064030670163
E[CC;  8]    -0.07065944251592
E[CC;  9]    -0.07066920811995
E[CC; 10]    -0.07067428174535
E[CC; 11]    -0.07067695869395
E[CC; 12]    -0.07067838955923
E[CC; 13]    -0.07067916258821
E[CC; 14]    -0.07067958384016
E[CC; 15]    -0.07067981498095
E[CC; 16]    -0.07067994249815
E[CC; 17]    -0.07068001314724
E[CC; 18]    -0.07068005241917
E[CC; 19]    -0.07068007430555
E[CC; 20]    -0.07068008652724
E[CC; 21]    -0.07068009336257
E[CC; 22]    -0.07068009719000
E[CC; 23]    -0.07068009933515
E[CC; 24]    -0.07068010053831
E[CC; 25]    -0.07068010121352
E[CC; 26]    -0.07068010159260
E[CC; 27]    -0.07068010180550
E[CC; 28]    -0.07068010192511
E[CC; 29]    -0.07068010199232
E[CC; 30]    -0.07068010203009
E[CC; 31]    -0.07068010205132
E[CC; 32]    -0.07068010206325
E[CC; 33]    -0.07068010206996
E[CC; 34]    -0.07068010207373
E[CC; 35]    -0.07068010207585
E[CC; 36]    -0.07068010207704
E[CC; 37]    -0.07068010207772
E[CC; 38]    -0.07068010207809
E[CC; 39]    -0.07068010207830
E[CC; 40]    -0.07068010207842
E[CC; 41]    -0.07068010207849
E[CC; 42]    -0.07068010207853
E[CC; 43]    -0.07068010207855
E[CC; 44]    -0.07068010207856
E[CC; 45]    -0.07068010207857

E[CC;final]    -0.07068010207857
 Building nu matrix ... Done! 
 Building u matrix ... Done! 
-----------------------------------------
-->>Configuration Interaction Singles<<--
-----------------------------------------

    Psi4 stopped on: Friday, 22 November 2019 01:57PM
    Psi4 wall time for execution: 0:00:03.21

*** Psi4 exiting successfully. Buy a developer a beer!
