
    -----------------------------------------------------------------------
          Psi4: An Open-Source Ab Initio Electronic Structure Package
                               Psi4 1.3.2 release

                         Git: Rev {HEAD} ecbda83 


    R. M. Parrish, L. A. Burns, D. G. A. Smith, A. C. Simmonett,
    A. E. DePrince III, E. G. Hohenstein, U. Bozkaya, A. Yu. Sokolov,
    R. Di Remigio, R. M. Richard, J. F. Gonthier, A. M. James,
    H. R. McAlexander, A. Kumar, M. Saitow, X. Wang, B. P. Pritchard,
    P. Verma, H. F. Schaefer III, K. Patkowski, R. A. King, E. F. Valeev,
    F. A. Evangelista, J. M. Turney, T. D. Crawford, and C. D. Sherrill,
    J. Chem. Theory Comput. 13(7) pp 3185--3197 (2017).
    (doi: 10.1021/acs.jctc.7b00174)


                         Additional Contributions by
    P. Kraus, H. Kruse, M. H. Lechner, M. C. Schieber, R. A. Shaw,
    A. Alenaizan, R. Galvelis, Z. L. Glick, S. Lehtola, and J. P. Misiewicz

    -----------------------------------------------------------------------


    Psi4 started on: Wednesday, 20 November 2019 02:46PM

    Process ID: 21374
    Host:       davis-ws
    PSIDATADIR: /home/mmd01986/.conda/envs/p4env/share/psi4
    Memory:     500.0 MiB
    Threads:    1
    
  ==> Input File <==

--------------------------------------------------------------------------

# PYTHONPATH must include directory above plugin directory.
#     Define either externally or here, then import plugin.
sys.path.insert(0, './..')
import ddcc

molecule {
O
H 1 R
H 1 R 2 A

R = 1.1
A = 104.0
symmetry c1
}

set {
  basis dz
}

set ddcc {
  print 1
}
set scf_type pk
set mp2_type conv
set E_CONVERGENCE 14
set D_CONVERGENCE 14

e = energy('ddcc')
er = energy('scf')
e1 = energy('mp2')
print("MP2 Energy (Psi4) ",e1 - er)
e2 = energy('ccsd')
print("CCSD Energy (Psi4) ",e2 - er)
--------------------------------------------------------------------------

*** tstart() called on davis-ws
*** at Wed Nov 20 14:46:27 2019

   => Loading Basis Set <=

    Name: DZ
    Role: ORBITAL
    Keyword: BASIS
    atoms 1   entry O          line   107 file /home/mmd01986/.conda/envs/p4env/share/psi4/basis/dz.gbs 
    atoms 2-3 entry H          line    12 file /home/mmd01986/.conda/envs/p4env/share/psi4/basis/dz.gbs 


         ---------------------------------------------------------
                                   SCF
               by Justin Turney, Rob Parrish, Andy Simmonett
                          and Daniel G. A. Smith
                              RHF Reference
                        1 Threads,    500 MiB Core
         ---------------------------------------------------------

  ==> Geometry <==

    Molecular point group: c1
    Full point group: C2v

    Geometry (in Angstrom), charge = 0, multiplicity = 1:

       Center              X                  Y                   Z               Mass       
    ------------   -----------------  -----------------  -----------------  -----------------
         O            0.000000000000     0.000000000000    -0.075791843599    15.994914619570
         H            0.000000000000    -0.866811828967     0.601435779259     1.007825032230
         H            0.000000000000     0.866811828967     0.601435779259     1.007825032230

  Running in c1 symmetry.

  Rotational constants: A =     20.53324  B =     11.13094  C =      7.21807 [cm^-1]
  Rotational constants: A = 615570.98071  B = 333697.07813  C = 216392.23582 [MHz]
  Nuclear repulsion =    8.002366482173422

  Charge       = 0
  Multiplicity = 1
  Electrons    = 10
  Nalpha       = 5
  Nbeta        = 5

  ==> Algorithm <==

  SCF Algorithm Type is PK.
  DIIS enabled.
  MOM disabled.
  Fractional occupation disabled.
  Guess Type is SAD.
  Energy threshold   = 1.00e-14
  Density threshold  = 1.00e-14
  Integral threshold = 0.00e+00

  ==> Primary Basis <==

  Basis Set: DZ
    Blend: DZ
    Number of shells: 10
    Number of basis function: 14
    Number of Cartesian functions: 14
    Spherical Harmonics?: false
    Max angular momentum: 1

  ==> Pre-Iterations <==

   -------------------------------------------------------
    Irrep   Nso     Nmo     Nalpha   Nbeta   Ndocc  Nsocc
   -------------------------------------------------------
     A         14      14       0       0       0       0
   -------------------------------------------------------
    Total      14      14       5       5       5       0
   -------------------------------------------------------

  ==> Integral Setup <==

  Using in-core PK algorithm.
   Calculation information:
      Number of atoms:                   3
      Number of AO shells:              10
      Number of primitives:             22
      Number of atomic orbitals:        14
      Number of basis functions:        14

      Integral cutoff                 1.00e-12
      Number of threads:                 1

  Performing in-core PK
  Using 11130 doubles for integral storage.
  We computed 1540 shell quartets total.
  Whereas there are 1540 unique shell quartets.

  ==> DiskJK: Disk-Based J/K Matrices <==

    J tasked:                  Yes
    K tasked:                  Yes
    wK tasked:                  No
    Memory [MiB]:              375
    Schwarz Cutoff:          1E-12

    OpenMP threads:              1

  Minimum eigenvalue in the overlap matrix is 7.1910265529E-02.
  Using Symmetric Orthogonalization.

  SCF Guess: Superposition of Atomic Densities via on-the-fly atomic UHF.

  ==> Iterations <==

                        Total Energy        Delta E     RMS |[F,P]|

   @RHF iter SAD:   -75.32981777097555   -7.53298e+01   0.00000e+00 
   @RHF iter   1:   -75.89423306805647   -5.64415e-01   2.85445e-02 DIIS
   @RHF iter   2:   -75.94460777537873   -5.03747e-02   2.11826e-02 DIIS
   @RHF iter   3:   -75.97727092643690   -3.26632e-02   1.65853e-03 DIIS
   @RHF iter   4:   -75.97784676344389   -5.75837e-04   3.72374e-04 DIIS
   @RHF iter   5:   -75.97787793481226   -3.11714e-05   5.85550e-05 DIIS
   @RHF iter   6:   -75.97787890254779   -9.67736e-07   1.15636e-05 DIIS
   @RHF iter   7:   -75.97787894302121   -4.04734e-08   2.78230e-06 DIIS
   @RHF iter   8:   -75.97787894570624   -2.68503e-09   7.89580e-07 DIIS
   @RHF iter   9:   -75.97787894587697   -1.70729e-10   7.25976e-08 DIIS
   @RHF iter  10:   -75.97787894587891   -1.94689e-12   5.48000e-09 DIIS
   @RHF iter  11:   -75.97787894587898   -7.10543e-14   5.88646e-10 DIIS
   @RHF iter  12:   -75.97787894587886    1.27898e-13   4.23304e-11 DIIS
   @RHF iter  13:   -75.97787894587893   -7.10543e-14   4.31026e-12 DIIS
   @RHF iter  14:   -75.97787894587901   -8.52651e-14   2.28601e-13 DIIS
   @RHF iter  15:   -75.97787894587881    1.98952e-13   8.32806e-14 DIIS
   @RHF iter  16:   -75.97787894587894   -1.27898e-13   2.24080e-14 DIIS
   @RHF iter  17:   -75.97787894587890    4.26326e-14   1.38919e-14 DIIS
   @RHF iter  18:   -75.97787894587901   -1.13687e-13   5.06645e-15 DIIS
   @RHF iter  19:   -75.97787894587898    2.84217e-14   4.86937e-15 DIIS
   @RHF iter  20:   -75.97787894587891    7.10543e-14   3.69689e-15 DIIS
   @RHF iter  21:   -75.97787894587891    0.00000e+00   3.42921e-15 DIIS
  Energy and wave function converged.


  ==> Post-Iterations <==

    Orbital Energies [Eh]
    ---------------------

    Doubly Occupied:                                                      

       1A    -20.584168     2A     -1.298253     3A     -0.643919  
       4A     -0.545852     5A     -0.500215  

    Virtual:                                                              

       6A      0.175050     7A      0.259201     8A      0.865846  
       9A      0.909054    10A      0.977987    11A      1.088733  
      12A      1.107669    13A      1.636228    14A     43.282673  

    Final Occupation by Irrep:
              A 
    DOCC [     5 ]

  @RHF Final Energy:   -75.97787894587891

   => Energetics <=

    Nuclear Repulsion Energy =              8.0023664821734215
    One-Electron Energy =                -120.8156775329091062
    Two-Electron Energy =                  36.8354321048567712
    Total Energy =                        -75.9778789458788992

Computation Completed


Properties will be evaluated at   0.000000,   0.000000,   0.000000 [a0]

Properties computed using the SCF density matrix

  Nuclear Dipole Moment: [e a0]
     X:     0.0000      Y:     0.0000      Z:     1.1273

  Electronic Dipole Moment: [e a0]
     X:     0.0000      Y:    -0.0000      Z:    -0.0563

  Dipole Moment: [e a0]
     X:     0.0000      Y:    -0.0000      Z:     1.0710     Total:     1.0710

  Dipole Moment: [D]
     X:     0.0000      Y:    -0.0000      Z:     2.7222     Total:     2.7222


*** tstop() called on davis-ws at Wed Nov 20 14:46:27 2019
Module time:
	user time   =       0.34 seconds =       0.01 minutes
	system time =       0.00 seconds =       0.00 minutes
	total time  =          0 seconds =       0.00 minutes
Total time:
	user time   =       0.34 seconds =       0.01 minutes
	system time =       0.00 seconds =       0.00 minutes
	total time  =          0 seconds =       0.00 minutes
 MINTS: Wrapper to libmints.
   by Justin Turney

   Calculation information:
      Number of threads:                 1
      Number of atoms:                   3
      Number of AO shells:              10
      Number of SO shells:              10
      Number of primitives:             22
      Number of atomic orbitals:        14
      Number of basis functions:        14

      Number of irreps:                  1
      Integral cutoff                 0.00e+00
      Number of functions per irrep: [  14 ]

 OEINTS: Overlap, kinetic, potential, dipole, and quadrupole integrals
         stored in file 35.

      Computing two-electron integrals...done
      Computed 3033 non-zero two-electron integrals.
        Stored in file 33.


Reading options from the DDCC block
Calling plugin ddcc.so.



*** tstart() called on davis-ws
*** at Wed Nov 20 14:46:34 2019

   => Loading Basis Set <=

    Name: DZ
    Role: ORBITAL
    Keyword: BASIS
    atoms 1   entry O          line   107 file /home/mmd01986/.conda/envs/p4env/share/psi4/basis/dz.gbs 
    atoms 2-3 entry H          line    12 file /home/mmd01986/.conda/envs/p4env/share/psi4/basis/dz.gbs 


         ---------------------------------------------------------
                                   SCF
               by Justin Turney, Rob Parrish, Andy Simmonett
                          and Daniel G. A. Smith
                              RHF Reference
                        1 Threads,    500 MiB Core
         ---------------------------------------------------------

  ==> Geometry <==

    Molecular point group: c1
    Full point group: C2v

    Geometry (in Angstrom), charge = 0, multiplicity = 1:

       Center              X                  Y                   Z               Mass       
    ------------   -----------------  -----------------  -----------------  -----------------
         O            0.000000000000     0.000000000000    -0.075791843599    15.994914619570
         H            0.000000000000    -0.866811828967     0.601435779259     1.007825032230
         H            0.000000000000     0.866811828967     0.601435779259     1.007825032230

  Running in c1 symmetry.

  Rotational constants: A =     20.53324  B =     11.13094  C =      7.21807 [cm^-1]
  Rotational constants: A = 615570.98071  B = 333697.07813  C = 216392.23582 [MHz]
  Nuclear repulsion =    8.002366482173422

  Charge       = 0
  Multiplicity = 1
  Electrons    = 10
  Nalpha       = 5
  Nbeta        = 5

  ==> Algorithm <==

  SCF Algorithm Type is PK.
  DIIS enabled.
  MOM disabled.
  Fractional occupation disabled.
  Guess Type is SAD.
  Energy threshold   = 1.00e-14
  Density threshold  = 1.00e-14
  Integral threshold = 0.00e+00

  ==> Primary Basis <==

  Basis Set: DZ
    Blend: DZ
    Number of shells: 10
    Number of basis function: 14
    Number of Cartesian functions: 14
    Spherical Harmonics?: false
    Max angular momentum: 1

  ==> Pre-Iterations <==

   -------------------------------------------------------
    Irrep   Nso     Nmo     Nalpha   Nbeta   Ndocc  Nsocc
   -------------------------------------------------------
     A         14      14       0       0       0       0
   -------------------------------------------------------
    Total      14      14       5       5       5       0
   -------------------------------------------------------

  ==> Integral Setup <==

  Using in-core PK algorithm.
   Calculation information:
      Number of atoms:                   3
      Number of AO shells:              10
      Number of primitives:             22
      Number of atomic orbitals:        14
      Number of basis functions:        14

      Integral cutoff                 1.00e-12
      Number of threads:                 1

  Performing in-core PK
  Using 11130 doubles for integral storage.
  We computed 1540 shell quartets total.
  Whereas there are 1540 unique shell quartets.

  ==> DiskJK: Disk-Based J/K Matrices <==

    J tasked:                  Yes
    K tasked:                  Yes
    wK tasked:                  No
    Memory [MiB]:              375
    Schwarz Cutoff:          1E-12

    OpenMP threads:              1

  Minimum eigenvalue in the overlap matrix is 7.1910265529E-02.
  Using Symmetric Orthogonalization.

  SCF Guess: Superposition of Atomic Densities via on-the-fly atomic UHF.

  ==> Iterations <==

                        Total Energy        Delta E     RMS |[F,P]|

   @RHF iter SAD:   -75.32981777097555   -7.53298e+01   0.00000e+00 
   @RHF iter   1:   -75.89423306805647   -5.64415e-01   2.85445e-02 DIIS
   @RHF iter   2:   -75.94460777537873   -5.03747e-02   2.11826e-02 DIIS
   @RHF iter   3:   -75.97727092643690   -3.26632e-02   1.65853e-03 DIIS
   @RHF iter   4:   -75.97784676344389   -5.75837e-04   3.72374e-04 DIIS
   @RHF iter   5:   -75.97787793481226   -3.11714e-05   5.85550e-05 DIIS
   @RHF iter   6:   -75.97787890254779   -9.67736e-07   1.15636e-05 DIIS
   @RHF iter   7:   -75.97787894302121   -4.04734e-08   2.78230e-06 DIIS
   @RHF iter   8:   -75.97787894570624   -2.68503e-09   7.89580e-07 DIIS
   @RHF iter   9:   -75.97787894587697   -1.70729e-10   7.25976e-08 DIIS
   @RHF iter  10:   -75.97787894587891   -1.94689e-12   5.48000e-09 DIIS
   @RHF iter  11:   -75.97787894587898   -7.10543e-14   5.88646e-10 DIIS
   @RHF iter  12:   -75.97787894587886    1.27898e-13   4.23304e-11 DIIS
   @RHF iter  13:   -75.97787894587893   -7.10543e-14   4.31026e-12 DIIS
   @RHF iter  14:   -75.97787894587901   -8.52651e-14   2.28601e-13 DIIS
   @RHF iter  15:   -75.97787894587881    1.98952e-13   8.32806e-14 DIIS
   @RHF iter  16:   -75.97787894587894   -1.27898e-13   2.24080e-14 DIIS
   @RHF iter  17:   -75.97787894587890    4.26326e-14   1.38919e-14 DIIS
   @RHF iter  18:   -75.97787894587901   -1.13687e-13   5.06645e-15 DIIS
   @RHF iter  19:   -75.97787894587898    2.84217e-14   4.86937e-15 DIIS
   @RHF iter  20:   -75.97787894587891    7.10543e-14   3.69689e-15 DIIS
   @RHF iter  21:   -75.97787894587891    0.00000e+00   3.42921e-15 DIIS
  Energy and wave function converged.


  ==> Post-Iterations <==

    Orbital Energies [Eh]
    ---------------------

    Doubly Occupied:                                                      

       1A    -20.584168     2A     -1.298253     3A     -0.643919  
       4A     -0.545852     5A     -0.500215  

    Virtual:                                                              

       6A      0.175050     7A      0.259201     8A      0.865846  
       9A      0.909054    10A      0.977987    11A      1.088733  
      12A      1.107669    13A      1.636228    14A     43.282673  

    Final Occupation by Irrep:
              A 
    DOCC [     5 ]

  @RHF Final Energy:   -75.97787894587891

   => Energetics <=

    Nuclear Repulsion Energy =              8.0023664821734215
    One-Electron Energy =                -120.8156775329091062
    Two-Electron Energy =                  36.8354321048567712
    Total Energy =                        -75.9778789458788992

Computation Completed


Properties will be evaluated at   0.000000,   0.000000,   0.000000 [a0]

Properties computed using the SCF density matrix

  Nuclear Dipole Moment: [e a0]
     X:     0.0000      Y:     0.0000      Z:     1.1273

  Electronic Dipole Moment: [e a0]
     X:     0.0000      Y:    -0.0000      Z:    -0.0563

  Dipole Moment: [e a0]
     X:     0.0000      Y:    -0.0000      Z:     1.0710     Total:     1.0710

  Dipole Moment: [D]
     X:     0.0000      Y:    -0.0000      Z:     2.7222     Total:     2.7222


*** tstop() called on davis-ws at Wed Nov 20 14:46:34 2019
Module time:
	user time   =       0.30 seconds =       0.01 minutes
	system time =       0.01 seconds =       0.00 minutes
	total time  =          0 seconds =       0.00 minutes
Total time:
	user time   =       6.85 seconds =       0.11 minutes
	system time =       0.02 seconds =       0.00 minutes
	total time  =          7 seconds =       0.12 minutes

*** tstart() called on davis-ws
*** at Wed Nov 20 14:46:34 2019

   => Loading Basis Set <=

    Name: DZ
    Role: ORBITAL
    Keyword: BASIS
    atoms 1   entry O          line   107 file /home/mmd01986/.conda/envs/p4env/share/psi4/basis/dz.gbs 
    atoms 2-3 entry H          line    12 file /home/mmd01986/.conda/envs/p4env/share/psi4/basis/dz.gbs 


         ---------------------------------------------------------
                                   SCF
               by Justin Turney, Rob Parrish, Andy Simmonett
                          and Daniel G. A. Smith
                              RHF Reference
                        1 Threads,    500 MiB Core
         ---------------------------------------------------------

  ==> Geometry <==

    Molecular point group: c1
    Full point group: C2v

    Geometry (in Angstrom), charge = 0, multiplicity = 1:

       Center              X                  Y                   Z               Mass       
    ------------   -----------------  -----------------  -----------------  -----------------
         O            0.000000000000     0.000000000000    -0.075791843599    15.994914619570
         H            0.000000000000    -0.866811828967     0.601435779259     1.007825032230
         H            0.000000000000     0.866811828967     0.601435779259     1.007825032230

  Running in c1 symmetry.

  Rotational constants: A =     20.53324  B =     11.13094  C =      7.21807 [cm^-1]
  Rotational constants: A = 615570.98071  B = 333697.07813  C = 216392.23582 [MHz]
  Nuclear repulsion =    8.002366482173422

  Charge       = 0
  Multiplicity = 1
  Electrons    = 10
  Nalpha       = 5
  Nbeta        = 5

  ==> Algorithm <==

  SCF Algorithm Type is PK.
  DIIS enabled.
  MOM disabled.
  Fractional occupation disabled.
  Guess Type is SAD.
  Energy threshold   = 1.00e-14
  Density threshold  = 1.00e-14
  Integral threshold = 0.00e+00

  ==> Primary Basis <==

  Basis Set: DZ
    Blend: DZ
    Number of shells: 10
    Number of basis function: 14
    Number of Cartesian functions: 14
    Spherical Harmonics?: false
    Max angular momentum: 1

  ==> Pre-Iterations <==

   -------------------------------------------------------
    Irrep   Nso     Nmo     Nalpha   Nbeta   Ndocc  Nsocc
   -------------------------------------------------------
     A         14      14       0       0       0       0
   -------------------------------------------------------
    Total      14      14       5       5       5       0
   -------------------------------------------------------

  ==> Integral Setup <==

  Using in-core PK algorithm.
   Calculation information:
      Number of atoms:                   3
      Number of AO shells:              10
      Number of primitives:             22
      Number of atomic orbitals:        14
      Number of basis functions:        14

      Integral cutoff                 1.00e-12
      Number of threads:                 1

  Performing in-core PK
  Using 11130 doubles for integral storage.
  We computed 1540 shell quartets total.
  Whereas there are 1540 unique shell quartets.

  ==> DiskJK: Disk-Based J/K Matrices <==

    J tasked:                  Yes
    K tasked:                  Yes
    wK tasked:                  No
    Memory [MiB]:              375
    Schwarz Cutoff:          1E-12

    OpenMP threads:              1

  Minimum eigenvalue in the overlap matrix is 7.1910265529E-02.
  Using Symmetric Orthogonalization.

  SCF Guess: Superposition of Atomic Densities via on-the-fly atomic UHF.

  ==> Iterations <==

                        Total Energy        Delta E     RMS |[F,P]|

   @RHF iter SAD:   -75.32981777097555   -7.53298e+01   0.00000e+00 
   @RHF iter   1:   -75.89423306805647   -5.64415e-01   2.85445e-02 DIIS
   @RHF iter   2:   -75.94460777537873   -5.03747e-02   2.11826e-02 DIIS
   @RHF iter   3:   -75.97727092643690   -3.26632e-02   1.65853e-03 DIIS
   @RHF iter   4:   -75.97784676344389   -5.75837e-04   3.72374e-04 DIIS
   @RHF iter   5:   -75.97787793481226   -3.11714e-05   5.85550e-05 DIIS
   @RHF iter   6:   -75.97787890254779   -9.67736e-07   1.15636e-05 DIIS
   @RHF iter   7:   -75.97787894302121   -4.04734e-08   2.78230e-06 DIIS
   @RHF iter   8:   -75.97787894570624   -2.68503e-09   7.89580e-07 DIIS
   @RHF iter   9:   -75.97787894587697   -1.70729e-10   7.25976e-08 DIIS
   @RHF iter  10:   -75.97787894587891   -1.94689e-12   5.48000e-09 DIIS
   @RHF iter  11:   -75.97787894587898   -7.10543e-14   5.88646e-10 DIIS
   @RHF iter  12:   -75.97787894587886    1.27898e-13   4.23304e-11 DIIS
   @RHF iter  13:   -75.97787894587893   -7.10543e-14   4.31026e-12 DIIS
   @RHF iter  14:   -75.97787894587901   -8.52651e-14   2.28601e-13 DIIS
   @RHF iter  15:   -75.97787894587881    1.98952e-13   8.32806e-14 DIIS
   @RHF iter  16:   -75.97787894587894   -1.27898e-13   2.24080e-14 DIIS
   @RHF iter  17:   -75.97787894587890    4.26326e-14   1.38919e-14 DIIS
   @RHF iter  18:   -75.97787894587901   -1.13687e-13   5.06645e-15 DIIS
   @RHF iter  19:   -75.97787894587898    2.84217e-14   4.86937e-15 DIIS
   @RHF iter  20:   -75.97787894587891    7.10543e-14   3.69689e-15 DIIS
   @RHF iter  21:   -75.97787894587891    0.00000e+00   3.42921e-15 DIIS
  Energy and wave function converged.


  ==> Post-Iterations <==

    Orbital Energies [Eh]
    ---------------------

    Doubly Occupied:                                                      

       1A    -20.584168     2A     -1.298253     3A     -0.643919  
       4A     -0.545852     5A     -0.500215  

    Virtual:                                                              

       6A      0.175050     7A      0.259201     8A      0.865846  
       9A      0.909054    10A      0.977987    11A      1.088733  
      12A      1.107669    13A      1.636228    14A     43.282673  

    Final Occupation by Irrep:
              A 
    DOCC [     5 ]

  @RHF Final Energy:   -75.97787894587891

   => Energetics <=

    Nuclear Repulsion Energy =              8.0023664821734215
    One-Electron Energy =                -120.8156775329091062
    Two-Electron Energy =                  36.8354321048567712
    Total Energy =                        -75.9778789458788992

Computation Completed


Properties will be evaluated at   0.000000,   0.000000,   0.000000 [a0]

Properties computed using the SCF density matrix

  Nuclear Dipole Moment: [e a0]
     X:     0.0000      Y:     0.0000      Z:     1.1273

  Electronic Dipole Moment: [e a0]
     X:     0.0000      Y:    -0.0000      Z:    -0.0563

  Dipole Moment: [e a0]
     X:     0.0000      Y:    -0.0000      Z:     1.0710     Total:     1.0710

  Dipole Moment: [D]
     X:     0.0000      Y:    -0.0000      Z:     2.7222     Total:     2.7222


*** tstop() called on davis-ws at Wed Nov 20 14:46:34 2019
Module time:
	user time   =       0.30 seconds =       0.00 minutes
	system time =       0.01 seconds =       0.00 minutes
	total time  =          0 seconds =       0.00 minutes
Total time:
	user time   =       7.15 seconds =       0.12 minutes
	system time =       0.03 seconds =       0.00 minutes
	total time  =          7 seconds =       0.12 minutes
 MINTS: Wrapper to libmints.
   by Justin Turney

   Calculation information:
      Number of threads:                 1
      Number of atoms:                   3
      Number of AO shells:              10
      Number of SO shells:              10
      Number of primitives:             22
      Number of atomic orbitals:        14
      Number of basis functions:        14

      Number of irreps:                  1
      Integral cutoff                 0.00e+00
      Number of functions per irrep: [  14 ]

 OEINTS: Overlap, kinetic, potential, dipole, and quadrupole integrals
         stored in file 35.

      Computing two-electron integrals...done
      Computed 3033 non-zero two-electron integrals.
        Stored in file 33.


*** tstart() called on davis-ws
*** at Wed Nov 20 14:46:34 2019



  Module OCC Options:
  ----------------------------------------------------------------------------
  ACTIVE                        => (empty)         !
  BASIS_RELATIVISTIC            => (empty)         !
  BENCH                         => (empty)         !
  CACHELEVEL                    => (empty)         !
  CCL_ENERGY                    => (empty)         !
  CC_DIIS_MAX_VECS              => (empty)         !
  CC_DIIS_MIN_VECS              => (empty)         !
  CC_MAXITER                    => (empty)         !
  CC_TYPE                       => (empty)         !
  CEPA_OS_SCALE                 => (empty)         !
  CEPA_SOS_SCALE                => (empty)         !
  CEPA_SS_SCALE                 => (empty)         !
  CEPA_TYPE                     => (empty)         !
  CI_TYPE                       => (empty)         !
  CUBEPROP_BASIS_FUNCTIONS      => (empty)         !
  CUBEPROP_FILEPATH             => (empty)         !
  CUBEPROP_ISOCONTOUR_THRESHOLD => (empty)         !
  CUBEPROP_ORBITALS             => (empty)         !
  CUBEPROP_TASKS                => (empty)         !
  CUBIC_BASIS_TOLERANCE         => (empty)         !
  CUBIC_BLOCK_MAX_POINTS        => (empty)         !
  CUBIC_GRID_OVERAGE            => (empty)         !
  CUBIC_GRID_SPACING            => (empty)         !
  CUTOFF                        => (empty)         !
  DEBUG                         => (empty)         !
  DERTYPE                       => (empty)         !
  DF_BASIS_CC                   => (empty)         !
  DIE_IF_NOT_CONVERGED          => (empty)         !
  DKH_ORDER                     => (empty)         !
  DOCC                          => (empty)         !
  DO_DIIS                       => (empty)         !
  DO_LEVEL_SHIFT                => (empty)         !
  DO_SCS                        => FALSE           !
  DO_SOS                        => FALSE           !
  E3_SCALE                      => (empty)         !
  EA_POLES                      => (empty)         !
  EKT_EA                        => (empty)         !
  EKT_IP                        => (empty)         !
  EP_EA_POLES                   => (empty)         !
  EP_IP_POLES                   => (empty)         !
  EP_MAXITER                    => (empty)         !
  EXTERNAL_POTENTIAL_SYMMETRY   => (empty)         !
  E_CONVERGENCE                 => 1e-14           !
  FREEZE_CORE                   => (empty)         !
  FROZEN_DOCC                   => (empty)         !
  FROZEN_UOCC                   => (empty)         !
  INTEGRAL_PACKAGE              => (empty)         !
  IP_POLES                      => (empty)         !
  LEVEL_SHIFT                   => (empty)         !
  LINEQ_SOLVER                  => (empty)         !
  LITERAL_CFOUR                 => (empty)         !
  MAT_NUM_COLUMN_PRINT          => (empty)         !
  MAX_MOGRAD_CONVERGENCE        => (empty)         !
  MOGRAD_DAMPING                => (empty)         !
  MOLDEN_WITH_VIRTUAL           => (empty)         !
  MO_DIIS_NUM_VECS              => (empty)         !
  MO_MAXITER                    => (empty)         !
  MO_READ                       => (empty)         !
  MO_STEP_MAX                   => (empty)         !
  MO_WRITE                      => (empty)         !
  MP2_OS_SCALE                  => (empty)         !
  MP2_SOS_SCALE                 => (empty)         !
  MP2_SOS_SCALE2                => (empty)         !
  MP2_SS_SCALE                  => (empty)         !
  MP2_TYPE                      => CONV            !
  MP_TYPE                       => (empty)         !
  NAT_ORBS                      => (empty)         !
  NUM_FROZEN_DOCC               => (empty)         !
  NUM_FROZEN_UOCC               => (empty)         !
  NUM_GPUS                      => (empty)         !
  OCC_ORBS_PRINT                => (empty)         !
  OEPROP                        => (empty)         !
  OPT_METHOD                    => (empty)         !
  ORB_OPT                       => FALSE           !
  ORB_RESP_SOLVER               => (empty)         !
  ORTH_TYPE                     => (empty)         !
  PCG_BETA_TYPE                 => (empty)         !
  PCG_CONVERGENCE               => (empty)         !
  PCG_MAXITER                   => (empty)         !
  PCM                           => (empty)         !
  PRINT                         => (empty)         !
  PRINT_NOONS                   => (empty)         !
  PROPERTIES                    => (empty)         !
  PROPERTIES_ORIGIN             => (empty)         !
  PUREAM                        => (empty)         !
  QC_MODULE                     => (empty)         !
  RAS1                          => (empty)         !
  RAS2                          => (empty)         !
  RAS3                          => (empty)         !
  RAS4                          => (empty)         !
  RELATIVISTIC                  => (empty)         !
  RELAXED                       => (empty)         !
  RESTRICTED_DOCC               => (empty)         !
  RESTRICTED_UOCC               => (empty)         !
  RMS_MOGRAD_CONVERGENCE        => (empty)         !
  R_CONVERGENCE                 => (empty)         !
  SCF_TYPE                      => PK              !
  SCS_TYPE                      => (empty)         !
  SOCC                          => (empty)         !
  SOS_TYPE                      => (empty)         !
  SYMMETRIZE                    => (empty)         !
  TPDM_ABCD_TYPE                => (empty)         !
  WFN                           => (empty)         !
  WFN_TYPE                      => OMP2            !
  WRITER_FILE_LABEL             => (empty)         !


 ============================================================================== 
 ============================================================================== 
 ============================================================================== 

                       MP2   
              Program Written by Ugur Bozkaya,
              Latest Revision June 25, 2014.

 ============================================================================== 
 ============================================================================== 
 ============================================================================== 

	RMS orbital gradient is changed to :     1.00e-09
	MAX orbital gradient is changed to :     1.00e-04
	MO spaces per irreps... 

	IRREP   FC    OCC   VIR  FV 
	==============================
	   A     0     5     9    0
	==============================

	Memory is    524 MB 
	Cost of iabc is      0 MB 
	Cost of abcd is      0 MB 
	Switching to the incore algorithm for iabc..
	Switching to the incore algorithm for abcd..

	Computing MP2 energy using SCF MOs (Canonical MP2)... 
	============================================================================== 
	Nuclear Repulsion Energy (a.u.)    :     8.00236648217342
	SCF Energy (a.u.)                  :   -75.97787894587891
	REF Energy (a.u.)                  :   -75.97787894587891
	Alpha-Alpha Contribution (a.u.)    :    -0.01657532220579
	Alpha-Beta Contribution (a.u.)     :    -0.11955924292831
	Beta-Beta Contribution (a.u.)      :    -0.01657532220579
	Scaled_SS Correlation Energy (a.u.):    -0.01105021480386
	Scaled_OS Correlation Energy (a.u.):    -0.14347109151398
	SCS-MP2 Total Energy (a.u.)        :   -76.13240025219676
	SOS-MP2 Total Energy (a.u.)        :   -75.97787894587891
	SCSN-MP2 Total Energy (a.u.)       :   -76.03622408004331
	SCS-MP2-VDW Total Energy (a.u.)    :   -76.14749009903295
	SOS-PI-MP2 Total Energy (a.u.)     :   -76.14526188597856
	MP2 Correlation Energy (a.u.)      :    -0.15270988733990
	MP2 Total Energy (a.u.)            :   -76.13058883321881
	============================================================================== 

*** tstop() called on davis-ws at Wed Nov 20 14:46:34 2019
Module time:
	user time   =       0.00 seconds =       0.00 minutes
	system time =       0.00 seconds =       0.00 minutes
	total time  =          0 seconds =       0.00 minutes
Total time:
	user time   =       7.17 seconds =       0.12 minutes
	system time =       0.03 seconds =       0.00 minutes
	total time  =          7 seconds =       0.12 minutes

*** tstart() called on davis-ws
*** at Wed Nov 20 14:46:34 2019

   => Loading Basis Set <=

    Name: DZ
    Role: ORBITAL
    Keyword: BASIS
    atoms 1   entry O          line   107 file /home/mmd01986/.conda/envs/p4env/share/psi4/basis/dz.gbs 
    atoms 2-3 entry H          line    12 file /home/mmd01986/.conda/envs/p4env/share/psi4/basis/dz.gbs 


         ---------------------------------------------------------
                                   SCF
               by Justin Turney, Rob Parrish, Andy Simmonett
                          and Daniel G. A. Smith
                              RHF Reference
                        1 Threads,    500 MiB Core
         ---------------------------------------------------------

  ==> Geometry <==

    Molecular point group: c1
    Full point group: C2v

    Geometry (in Angstrom), charge = 0, multiplicity = 1:

       Center              X                  Y                   Z               Mass       
    ------------   -----------------  -----------------  -----------------  -----------------
         O            0.000000000000     0.000000000000    -0.075791843599    15.994914619570
         H            0.000000000000    -0.866811828967     0.601435779259     1.007825032230
         H            0.000000000000     0.866811828967     0.601435779259     1.007825032230

  Running in c1 symmetry.

  Rotational constants: A =     20.53324  B =     11.13094  C =      7.21807 [cm^-1]
  Rotational constants: A = 615570.98071  B = 333697.07813  C = 216392.23582 [MHz]
  Nuclear repulsion =    8.002366482173422

  Charge       = 0
  Multiplicity = 1
  Electrons    = 10
  Nalpha       = 5
  Nbeta        = 5

  ==> Algorithm <==

  SCF Algorithm Type is PK.
  DIIS enabled.
  MOM disabled.
  Fractional occupation disabled.
  Guess Type is SAD.
  Energy threshold   = 1.00e-14
  Density threshold  = 1.00e-14
  Integral threshold = 0.00e+00

  ==> Primary Basis <==

  Basis Set: DZ
    Blend: DZ
    Number of shells: 10
    Number of basis function: 14
    Number of Cartesian functions: 14
    Spherical Harmonics?: false
    Max angular momentum: 1

  ==> Pre-Iterations <==

   -------------------------------------------------------
    Irrep   Nso     Nmo     Nalpha   Nbeta   Ndocc  Nsocc
   -------------------------------------------------------
     A         14      14       0       0       0       0
   -------------------------------------------------------
    Total      14      14       5       5       5       0
   -------------------------------------------------------

  ==> Integral Setup <==

  Using in-core PK algorithm.
   Calculation information:
      Number of atoms:                   3
      Number of AO shells:              10
      Number of primitives:             22
      Number of atomic orbitals:        14
      Number of basis functions:        14

      Integral cutoff                 1.00e-12
      Number of threads:                 1

  Performing in-core PK
  Using 11130 doubles for integral storage.
  We computed 1540 shell quartets total.
  Whereas there are 1540 unique shell quartets.

  ==> DiskJK: Disk-Based J/K Matrices <==

    J tasked:                  Yes
    K tasked:                  Yes
    wK tasked:                  No
    Memory [MiB]:              375
    Schwarz Cutoff:          1E-12

    OpenMP threads:              1

  Minimum eigenvalue in the overlap matrix is 7.1910265529E-02.
  Using Symmetric Orthogonalization.

  SCF Guess: Superposition of Atomic Densities via on-the-fly atomic UHF.

  ==> Iterations <==

                        Total Energy        Delta E     RMS |[F,P]|

   @RHF iter SAD:   -75.32981777097555   -7.53298e+01   0.00000e+00 
   @RHF iter   1:   -75.89423306805645   -5.64415e-01   2.85445e-02 DIIS
   @RHF iter   2:   -75.94460777537884   -5.03747e-02   2.11826e-02 DIIS
   @RHF iter   3:   -75.97727092643683   -3.26632e-02   1.65853e-03 DIIS
   @RHF iter   4:   -75.97784676344385   -5.75837e-04   3.72374e-04 DIIS
   @RHF iter   5:   -75.97787793481226   -3.11714e-05   5.85550e-05 DIIS
   @RHF iter   6:   -75.97787890254773   -9.67735e-07   1.15636e-05 DIIS
   @RHF iter   7:   -75.97787894302124   -4.04735e-08   2.78230e-06 DIIS
   @RHF iter   8:   -75.97787894570635   -2.68511e-09   7.89580e-07 DIIS
   @RHF iter   9:   -75.97787894587691   -1.70559e-10   7.25976e-08 DIIS
   @RHF iter  10:   -75.97787894587890   -1.98952e-12   5.48000e-09 DIIS
   @RHF iter  11:   -75.97787894587887    2.84217e-14   5.88646e-10 DIIS
   @RHF iter  12:   -75.97787894587897   -9.94760e-14   4.23304e-11 DIIS
   @RHF iter  13:   -75.97787894587887    9.94760e-14   4.30972e-12 DIIS
   @RHF iter  14:   -75.97787894587889   -1.42109e-14   2.27834e-13 DIIS
   @RHF iter  15:   -75.97787894587893   -4.26326e-14   8.18077e-14 DIIS
   @RHF iter  16:   -75.97787894587894   -1.42109e-14   2.25358e-14 DIIS
   @RHF iter  17:   -75.97787894587894    0.00000e+00   1.36963e-14 DIIS
   @RHF iter  18:   -75.97787894587890    4.26326e-14   6.21816e-15 DIIS
   @RHF iter  19:   -75.97787894587898   -8.52651e-14   3.80282e-15 DIIS
   @RHF iter  20:   -75.97787894587900   -1.42109e-14   3.71339e-15 DIIS
   @RHF iter  21:   -75.97787894587898    1.42109e-14   4.78998e-15 DIIS
   @RHF iter  22:   -75.97787894587890    8.52651e-14   4.60824e-15 DIIS
   @RHF iter  23:   -75.97787894587890    0.00000e+00   4.28908e-15 DIIS
  Energy and wave function converged.


  ==> Post-Iterations <==

    Orbital Energies [Eh]
    ---------------------

    Doubly Occupied:                                                      

       1A    -20.584168     2A     -1.298253     3A     -0.643919  
       4A     -0.545852     5A     -0.500215  

    Virtual:                                                              

       6A      0.175050     7A      0.259201     8A      0.865846  
       9A      0.909054    10A      0.977987    11A      1.088733  
      12A      1.107669    13A      1.636228    14A     43.282673  

    Final Occupation by Irrep:
              A 
    DOCC [     5 ]

  @RHF Final Energy:   -75.97787894587890

   => Energetics <=

    Nuclear Repulsion Energy =              8.0023664821734215
    One-Electron Energy =                -120.8156775329090920
    Two-Electron Energy =                  36.8354321048567641
    Total Energy =                        -75.9778789458789134

Computation Completed


Properties will be evaluated at   0.000000,   0.000000,   0.000000 [a0]

Properties computed using the SCF density matrix

  Nuclear Dipole Moment: [e a0]
     X:     0.0000      Y:     0.0000      Z:     1.1273

  Electronic Dipole Moment: [e a0]
     X:     0.0000      Y:     0.0000      Z:    -0.0563

  Dipole Moment: [e a0]
     X:     0.0000      Y:     0.0000      Z:     1.0710     Total:     1.0710

  Dipole Moment: [D]
     X:     0.0000      Y:     0.0000      Z:     2.7222     Total:     2.7222


*** tstop() called on davis-ws at Wed Nov 20 14:46:35 2019
Module time:
	user time   =       0.31 seconds =       0.01 minutes
	system time =       0.00 seconds =       0.00 minutes
	total time  =          1 seconds =       0.02 minutes
Total time:
	user time   =       7.48 seconds =       0.12 minutes
	system time =       0.03 seconds =       0.00 minutes
	total time  =          8 seconds =       0.13 minutes
 MINTS: Wrapper to libmints.
   by Justin Turney

   Calculation information:
      Number of threads:                 1
      Number of atoms:                   3
      Number of AO shells:              10
      Number of SO shells:              10
      Number of primitives:             22
      Number of atomic orbitals:        14
      Number of basis functions:        14

      Number of irreps:                  1
      Integral cutoff                 0.00e+00
      Number of functions per irrep: [  14 ]

 OEINTS: Overlap, kinetic, potential, dipole, and quadrupole integrals
         stored in file 35.

      Computing two-electron integrals...done
      Computed 3033 non-zero two-electron integrals.
        Stored in file 33.


*** tstart() called on davis-ws
*** at Wed Nov 20 14:46:35 2019


	Wfn Parameters:
	--------------------
	Wavefunction         = CCSD
	Number of irreps     = 1
	Number of MOs        = 14
	Number of active MOs = 14
	AO-Basis             = NONE
	Semicanonical        = false
	Reference            = RHF
	Print Level          = 1

	IRREP	# MOs	# FZDC	# DOCC	# SOCC	# VIRT	# FZVR
	-----	-----	------	------	------	------	------
	 A	   14	    0	    5	    0	    9	    0
	Transforming integrals...
	IWL integrals will be deleted.
	(OO|OO)...
	Presorting SO-basis two-electron integrals.
	Sorting File: SO Ints (nn|nn) nbuckets = 1
	Transforming the one-electron integrals and constructing Fock matrices
	Starting first half-transformation.
	Sorting half-transformed integrals.
	First half integral transformation complete.
	Starting second half-transformation.
	Two-electron integral transformation complete.
	(OO|OV)...
	Starting second half-transformation.
	Two-electron integral transformation complete.
	(OO|VV)...
	Starting second half-transformation.
	Two-electron integral transformation complete.
	(OV|OO)...
	Starting first half-transformation.
	Sorting half-transformed integrals.
	First half integral transformation complete.
	Starting second half-transformation.
	Two-electron integral transformation complete.
	(OV|OV)...
	Starting second half-transformation.
	Two-electron integral transformation complete.
	(OV|VV)...
	Starting second half-transformation.
	Two-electron integral transformation complete.
	(VV|OO)...
	Starting first half-transformation.
	Sorting half-transformed integrals.
	First half integral transformation complete.
	Starting second half-transformation.
	Two-electron integral transformation complete.
	(VV|OV)...
	Starting second half-transformation.
	Two-electron integral transformation complete.
	(VV|VV)...
	Starting second half-transformation.
	Two-electron integral transformation complete.
	Frozen core energy     =      0.00000000000000

	Size of irrep 0 of <ab|cd> integrals:      0.007 (MW) /      0.052 (MB)
	Total:                                     0.007 (MW) /      0.052 (MB)

	Size of irrep 0 of <ia|bc> integrals:      0.004 (MW) /      0.029 (MB)
	Total:                                     0.004 (MW) /      0.029 (MB)

	Size of irrep 0 of tijab amplitudes:       0.002 (MW) /      0.016 (MB)
	Total:                                     0.002 (MW) /      0.016 (MB)

	Nuclear Rep. energy          =      8.00236648217342
	SCF energy                   =    -75.97787894587890
	One-electron energy          =   -120.81567753290911
	Two-electron energy          =     36.83543210485674
	Reference energy             =    -75.97787894587896

*** tstop() called on davis-ws at Wed Nov 20 14:46:35 2019
Module time:
	user time   =       0.01 seconds =       0.00 minutes
	system time =       0.02 seconds =       0.00 minutes
	total time  =          0 seconds =       0.00 minutes
Total time:
	user time   =       7.51 seconds =       0.13 minutes
	system time =       0.05 seconds =       0.00 minutes
	total time  =          8 seconds =       0.13 minutes
            **************************
            *                        *
            *        CCENERGY        *
            *                        *
            **************************

    Nuclear Rep. energy (wfn)     =    8.002366482173422
    SCF energy          (wfn)     =  -75.977878945878899
    Reference energy    (file100) =  -75.977878945878956

    Input parameters:
    -----------------
    Wave function   =     CCSD
    Reference wfn   =     RHF
    Brueckner       =     No
    Memory (Mbytes) =     524.3
    Maxiter         =     50
    R_Convergence   =     1.0e-07
    E_Convergence   =     1.0e-14
    Restart         =     Yes
    DIIS            =     Yes
    AO Basis        =     NONE
    ABCD            =     NEW
    Cache Level     =     2
    Cache Type      =     LOW
    Print Level     =     1
    Num. of threads =     1
    # Amps to Print =     10
    Print MP2 Amps? =     No
    Analyze T2 Amps =     No
    Print Pair Ener =     No
    Local CC        =     No
    SCS-MP2         =     False
    SCSN-MP2        =     False
    SCS-CCSD        =     False

MP2 correlation energy -0.1527098873398986
                Solving CC Amplitude Equations
                ------------------------------
  Iter             Energy              RMS        T1Diag      D1Diag    New D1Diag    D2Diag
  ----     ---------------------    ---------   ----------  ----------  ----------   --------
     0        -0.152709887339899    0.000e+00    0.000000    0.000000    0.000000    0.118832
     1        -0.153219628794606    3.758e-02    0.006986    0.013001    0.013001    0.130010
     2        -0.158606290401120    1.564e-02    0.008177    0.015315    0.015315    0.140471
     3        -0.159761842325789    5.111e-03    0.009177    0.018242    0.018242    0.144332
     4        -0.159832766886826    1.231e-03    0.009251    0.018891    0.018891    0.144810
     5        -0.159866399710989    4.000e-04    0.009318    0.019285    0.019285    0.144892
     6        -0.159856918867315    1.148e-04    0.009341    0.019401    0.019401    0.144846
     7        -0.159855858509397    2.415e-05    0.009345    0.019426    0.019426    0.144839
     8        -0.159855841607584    6.557e-06    0.009346    0.019432    0.019432    0.144839
     9        -0.159855584782593    1.966e-06    0.009346    0.019433    0.019433    0.144839
    10        -0.159855636528395    3.824e-07    0.009346    0.019433    0.019433    0.144839
    11        -0.159855626617305    8.975e-08    0.009347    0.019433    0.019433    0.144839
    12        -0.159855627496073    1.462e-08    0.009347    0.019433    0.019433    0.144839
    13        -0.159855626712037    3.935e-09    0.009347    0.019433    0.019433    0.144839
    14        -0.159855626752194    6.322e-10    0.009347    0.019433    0.019433    0.144839
    15        -0.159855626771329    1.609e-10    0.009347    0.019433    0.019433    0.144839
    16        -0.159855626776583    3.813e-11    0.009347    0.019433    0.019433    0.144839
    17        -0.159855626777430    9.445e-12    0.009347    0.019433    0.019433    0.144839
    18        -0.159855626777188    2.353e-12    0.009347    0.019433    0.019433    0.144839
    19        -0.159855626777124    4.629e-13    0.009347    0.019433    0.019433    0.144839
    20        -0.159855626777129    8.746e-14    0.009347    0.019433    0.019433    0.144839
    21        -0.159855626777128    2.213e-14    0.009347    0.019433    0.019433    0.144839

    Iterations converged.


    Largest TIA Amplitudes:
              3   0         0.0175145558
              4   2        -0.0149558765
              2   4         0.0113855948
              2   1        -0.0086890336
              3   7        -0.0073859030
              1   3        -0.0065929048
              2   6         0.0047294437
              1   0        -0.0024119337
              3   5         0.0023072132
              1   7         0.0019574080

    Largest TIjAb Amplitudes:
      2   2   1   1        -0.0647997026
      4   4   2   2        -0.0568753540
      3   3   3   3        -0.0474515572
      3   3   0   0        -0.0396315648
      2   3   1   0         0.0389221878
      3   2   0   1         0.0389221878
      2   2   1   6        -0.0365437016
      2   2   6   1        -0.0365437016
      2   2   0   0        -0.0354825156
      3   4   3   2        -0.0354340567

    SCF energy       (wfn)                    =  -75.977878945878899
    Reference energy (file100)                =  -75.977878945878956

    Opposite-spin MP2 correlation energy      =   -0.119559242928313
    Same-spin MP2 correlation energy          =   -0.033150644411586
    MP2 correlation energy                    =   -0.152709887339899
      * MP2 total energy                      =  -76.130588833218852

    Opposite-spin CCSD correlation energy     =   -0.135032798960005
    Same-spin CCSD correlation energy         =   -0.024822827817123
    CCSD correlation energy                   =   -0.159855626777128
      * CCSD total energy                     =  -76.137734572656086


    Psi4 stopped on: Wednesday, 20 November 2019 02:46PM
    Psi4 wall time for execution: 0:00:07.82

*** Psi4 exiting successfully. Buy a developer a beer!
