
    -----------------------------------------------------------------------
          Psi4: An Open-Source Ab Initio Electronic Structure Package
                               Psi4 1.4a2.dev138 

                         Git: Rev {master} aa2bb28 


    R. M. Parrish, L. A. Burns, D. G. A. Smith, A. C. Simmonett,
    A. E. DePrince III, E. G. Hohenstein, U. Bozkaya, A. Yu. Sokolov,
    R. Di Remigio, R. M. Richard, J. F. Gonthier, A. M. James,
    H. R. McAlexander, A. Kumar, M. Saitow, X. Wang, B. P. Pritchard,
    P. Verma, H. F. Schaefer III, K. Patkowski, R. A. King, E. F. Valeev,
    F. A. Evangelista, J. M. Turney, T. D. Crawford, and C. D. Sherrill,
    J. Chem. Theory Comput. 13(7) pp 3185--3197 (2017).
    (doi: 10.1021/acs.jctc.7b00174)


                         Additional Contributions by
    P. Kraus, H. Kruse, M. H. Lechner, M. C. Schieber, R. A. Shaw,
    A. Alenaizan, R. Galvelis, Z. L. Glick, S. Lehtola, and J. P. Misiewicz

    -----------------------------------------------------------------------


    Psi4 started on: Wednesday, 20 November 2019 06:06PM

    Process ID: 18001
    Host:       ws-b14-mmd
    PSIDATADIR: /home/mmd01986/anaconda3/envs/psi4/share/psi4
    Memory:     500.0 MiB
    Threads:    1
    
  ==> Input File <==

--------------------------------------------------------------------------

# PYTHONPATH must include directory above plugin directory.
#     Define either externally or here, then import plugin.
sys.path.insert(0, './..')
import aoint

molecule {
O
H 1 R
H 1 R 2 A

R = .9
A = 104.5
}

set {
  basis sto-3g
}

set aoint {
  print 1
}

energy('aoint')

aoint.exampleFN()
--------------------------------------------------------------------------

*** tstart() called on ws-b14-mmd
*** at Wed Nov 20 18:06:45 2019

   => Loading Basis Set <=

    Name: STO-3G
    Role: ORBITAL
    Keyword: BASIS
    atoms 1   entry O          line    81 file /home/mmd01986/anaconda3/envs/psi4/share/psi4/basis/sto-3g.gbs 
    atoms 2-3 entry H          line    19 file /home/mmd01986/anaconda3/envs/psi4/share/psi4/basis/sto-3g.gbs 


         ---------------------------------------------------------
                                   SCF
               by Justin Turney, Rob Parrish, Andy Simmonett
                          and Daniel G. A. Smith
                              RHF Reference
                        1 Threads,    500 MiB Core
         ---------------------------------------------------------

  ==> Geometry <==

    Molecular point group: c2v
    Full point group: C2v

    Geometry (in Angstrom), charge = 0, multiplicity = 1:

       Center              X                  Y                   Z               Mass       
    ------------   -----------------  -----------------  -----------------  -----------------
         O            0.000000000000     0.000000000000    -0.061664597388    15.994914619570
         H            0.000000000000    -0.711620616369     0.489330954643     1.007825032230
         H            0.000000000000     0.711620616369     0.489330954643     1.007825032230

  Running in c2v symmetry.

  Rotational constants: A =     31.01920  B =     16.51522  C =     10.77722 [cm^-1]
  Rotational constants: A = 929932.18703  B = 495113.78650  C = 323092.90708 [MHz]
  Nuclear repulsion =    9.779406182852640

  Charge       = 0
  Multiplicity = 1
  Electrons    = 10
  Nalpha       = 5
  Nbeta        = 5

  ==> Algorithm <==

  SCF Algorithm Type is PK.
  DIIS enabled.
  MOM disabled.
  Fractional occupation disabled.
  Guess Type is SAD.
  Energy threshold   = 1.00e-08
  Density threshold  = 1.00e-08
  Integral threshold = 0.00e+00

  ==> Primary Basis <==

  Basis Set: STO-3G
    Blend: STO-3G
    Number of shells: 5
    Number of basis function: 7
    Number of Cartesian functions: 7
    Spherical Harmonics?: true
    Max angular momentum: 1

  ==> Pre-Iterations <==

   -------------------------------------------------------
    Irrep   Nso     Nmo     Nalpha   Nbeta   Ndocc  Nsocc
   -------------------------------------------------------
     A1         4       4       0       0       0       0
     A2         0       0       0       0       0       0
     B1         1       1       0       0       0       0
     B2         2       2       0       0       0       0
   -------------------------------------------------------
    Total       7       7       5       5       5       0
   -------------------------------------------------------

  ==> Integral Setup <==

  Using in-core PK algorithm.
   Calculation information:
      Number of atoms:                   3
      Number of AO shells:               5
      Number of primitives:             15
      Number of atomic orbitals:         7
      Number of basis functions:         7

      Integral cutoff                 1.00e-12
      Number of threads:                 1

  Performing in-core PK
  Using 812 doubles for integral storage.
  We computed 120 shell quartets total.
  Whereas there are 120 unique shell quartets.

  ==> DiskJK: Disk-Based J/K Matrices <==

    J tasked:                  Yes
    K tasked:                  Yes
    wK tasked:                  No
    Memory [MiB]:              375
    Schwarz Cutoff:          1E-12

    OpenMP threads:              1

  Minimum eigenvalue in the overlap matrix is 3.0451396789E-01.
  Using Symmetric Orthogonalization.

  SCF Guess: Superposition of Atomic Densities via on-the-fly atomic UHF.

  ==> Iterations <==

                        Total Energy        Delta E     RMS |[F,P]|

   @RHF iter SAD:   -74.37017753290787   -7.43702e+01   0.00000e+00 
   @RHF iter   1:   -74.90239585121181   -5.32218e-01   5.17506e-02 DIIS
   @RHF iter   2:   -74.94424188501533   -4.18460e-02   7.39039e-03 DIIS
   @RHF iter   3:   -74.94496693529969   -7.25050e-04   1.74713e-03 DIIS
   @RHF iter   4:   -74.94502020635454   -5.32711e-05   1.65141e-04 DIIS
   @RHF iter   5:   -74.94502100708436   -8.00730e-07   8.05503e-06 DIIS
   @RHF iter   6:   -74.94502100875899   -1.67462e-09   5.85627e-07 DIIS
   @RHF iter   7:   -74.94502100876635   -7.36122e-12   2.25815e-09 DIIS
  Energy and wave function converged.


  ==> Post-Iterations <==

    Orbital Energies [Eh]
    ---------------------

    Doubly Occupied:                                                      

       1A1   -20.236192     2A1    -1.300480     1B2    -0.649309  
       3A1    -0.460194     1B1    -0.396298  

    Virtual:                                                              

       4A1     0.664827     2B2     0.813314  

    Final Occupation by Irrep:
             A1    A2    B1    B2 
    DOCC [     3,    0,    1,    1 ]

  @RHF Final Energy:   -74.94502100876635

   => Energetics <=

    Nuclear Repulsion Energy =              9.7794061828526395
    One-Electron Energy =                -123.3639077899159417
    Two-Electron Energy =                  38.6394805982969558
    Total Energy =                        -74.9450210087663464

Computation Completed


Properties will be evaluated at   0.000000,   0.000000,   0.000000 [a0]

Properties computed using the SCF density matrix

  Nuclear Dipole Moment: [e a0]
     X:     0.0000      Y:     0.0000      Z:     0.9172

  Electronic Dipole Moment: [e a0]
     X:     0.0000      Y:     0.0000      Z:    -0.2095

  Dipole Moment: [e a0]
     X:     0.0000      Y:     0.0000      Z:     0.7076     Total:     0.7076

  Dipole Moment: [D]
     X:     0.0000      Y:     0.0000      Z:     1.7986     Total:     1.7986


*** tstop() called on ws-b14-mmd at Wed Nov 20 18:06:45 2019
Module time:
	user time   =       0.37 seconds =       0.01 minutes
	system time =       0.01 seconds =       0.00 minutes
	total time  =          0 seconds =       0.00 minutes
Total time:
	user time   =       0.37 seconds =       0.01 minutes
	system time =       0.01 seconds =       0.00 minutes
	total time  =          0 seconds =       0.00 minutes
 MINTS: Wrapper to libmints.
   by Justin Turney

   Calculation information:
      Number of threads:                 1
      Number of atoms:                   3
      Number of AO shells:               5
      Number of SO shells:               4
      Number of primitives:             15
      Number of atomic orbitals:         7
      Number of basis functions:         7

      Number of irreps:                  4
      Integral cutoff                 0.00e+00
      Number of functions per irrep: [   4    0    1    2 ]

 OEINTS: Overlap, kinetic, potential, dipole, and quadrupole integrals
         stored in file 35.

      Computing two-electron integrals...done
      Computed 138 non-zero two-electron integrals.
        Stored in file 33.


Reading options from the AOINT block
Calling plugin aoint.so.


    Molecular point group: c2v
    Full point group: C2v

    Geometry (in Angstrom), charge = 0, multiplicity = 1:

       Center              X                  Y                   Z               Mass       
    ------------   -----------------  -----------------  -----------------  -----------------
         O            0.000000000000     0.000000000000    -0.061664597388    15.994914619570
         H            0.000000000000    -0.711620616369     0.489330954643     1.007825032230
         H            0.000000000000     0.711620616369     0.489330954643     1.007825032230


    Nuclear repulsion energy:       9.77940618

  ## AO-basis Overlap Ints (Symmetry 0) ##
  Irrep: 1 Size: 7 x 7

                 1                   2                   3                   4                   5

    1     1.00000000000000     0.23670393651085     0.00000000000000     0.00000000000000     0.00000000000000
    2     0.23670393651085     1.00000000000000    -0.00000000000000     0.00000000000000     0.00000000000000
    3     0.00000000000000    -0.00000000000000     1.00000000000000     0.00000000000000     0.00000000000000
    4     0.00000000000000     0.00000000000000     0.00000000000000     1.00000000000000     0.00000000000000
    5     0.00000000000000     0.00000000000000     0.00000000000000     0.00000000000000     1.00000000000000
    6     0.06178327794062     0.51304925823171     0.25254598449766     0.00000000000000    -0.32616765868147
    7     0.06178327794062     0.51304925823171     0.25254598449766     0.00000000000000     0.32616765868147

                 6                   7

    1     0.06178327794062     0.06178327794062
    2     0.51304925823171     0.51304925823171
    3     0.25254598449766     0.25254598449766
    4     0.00000000000000     0.00000000000000
    5    -0.32616765868147     0.32616765868147
    6     1.00000000000000     0.28626575823453
    7     0.28626575823453     1.00000000000000



  ## AO-basis Kinetic Ints (Symmetry 0) ##
  Irrep: 1 Size: 7 x 7

                 1                   2                   3                   4                   5

    1    29.00319994553957    -0.16801093931649     0.00000000000000     0.00000000000000     0.00000000000000
    2    -0.16801093931649     0.80812795493035    -0.00000000000000     0.00000000000000     0.00000000000000
    3     0.00000000000000    -0.00000000000000     2.52873119819476     0.00000000000000     0.00000000000000
    4     0.00000000000000     0.00000000000000     0.00000000000000     2.52873119819476     0.00000000000000
    5     0.00000000000000     0.00000000000000     0.00000000000000     0.00000000000000     2.52873119819476
    6     0.00222535639527     0.15794811044327     0.20211408543414     0.00000000000000    -0.26103395848375
    7     0.00222535639527     0.15794811044327     0.20211408543414     0.00000000000000     0.26103395848375

                 6                   7

    1     0.00222535639527     0.00222535639527
    2     0.15794811044327     0.15794811044327
    3     0.20211408543414     0.20211408543414
    4     0.00000000000000     0.00000000000000
    5    -0.26103395848375     0.26103395848375
    6     0.76003188356661     0.01708903381695
    7     0.01708903381695     0.76003188356661



  ## AO-basis Potential Ints (Symmetry 0) ##
  Irrep: 1 Size: 7 x 7

                 1                   2                   3                   4                   5

    1   -61.79440426246708    -7.46143128660208    -0.02150044937107     0.00000000000000    -0.00000000000000
    2    -7.46143128660208   -10.20567911728269    -0.24679227293966     0.00000000000000    -0.00000000000000
    3    -0.02150044937107    -0.24679227293966   -10.14448528956021     0.00000000000000     0.00000000000000
    4     0.00000000000000     0.00000000000000     0.00000000000000   -10.03745127181515     0.00000000000000
    5    -0.00000000000000    -0.00000000000000     0.00000000000000     0.00000000000000   -10.21598599109411
    6    -2.00866389935172    -4.28175275322795    -1.96774550251449     0.00000000000000     2.42948082081873
    7    -2.00866389935172    -4.28175275322795    -1.96774550251449     0.00000000000000    -2.42948082081873

                 6                   7

    1    -2.00866389935172    -2.00866389935172
    2    -4.28175275322795    -4.28175275322795
    3    -1.96774550251449    -1.96774550251449
    4     0.00000000000000     0.00000000000000
    5     2.42948082081873    -2.42948082081873
    6    -6.08610921469062    -1.90967742611054
    7    -1.90967742611054    -6.08610921469062



  ## Core Hamiltonian Matrix (Symmetry 0) ##
  Irrep: 1 Size: 7 x 7

                 1                   2                   3                   4                   5

    1   -32.79120431692751    -7.62944222591857    -0.02150044937107     0.00000000000000    -0.00000000000000
    2    -7.62944222591857    -9.39755116235234    -0.24679227293966     0.00000000000000    -0.00000000000000
    3    -0.02150044937107    -0.24679227293966    -7.61575409136545     0.00000000000000     0.00000000000000
    4     0.00000000000000     0.00000000000000     0.00000000000000    -7.50872007362039     0.00000000000000
    5    -0.00000000000000    -0.00000000000000     0.00000000000000     0.00000000000000    -7.68725479289934
    6    -2.00643854295645    -4.12380464278468    -1.76563141708035     0.00000000000000     2.16844686233498
    7    -2.00643854295645    -4.12380464278468    -1.76563141708035     0.00000000000000    -2.16844686233498

                 6                   7

    1    -2.00643854295645    -2.00643854295645
    2    -4.12380464278468    -4.12380464278468
    3    -1.76563141708035    -1.76563141708035
    4     0.00000000000000     0.00000000000000
    5     2.16844686233498    -2.16844686233498
    6    -5.32607733112401    -1.89258839229359
    7    -1.89258839229359    -5.32607733112401




    Psi4 stopped on: Wednesday, 20 November 2019 06:06PM
    Psi4 wall time for execution: 0:00:00.43

*** Psi4 exiting successfully. Buy a developer a beer!
