
    -----------------------------------------------------------------------
          Psi4: An Open-Source Ab Initio Electronic Structure Package
                               Psi4 1.4a2.dev138 

                         Git: Rev {master} aa2bb28 


    R. M. Parrish, L. A. Burns, D. G. A. Smith, A. C. Simmonett,
    A. E. DePrince III, E. G. Hohenstein, U. Bozkaya, A. Yu. Sokolov,
    R. Di Remigio, R. M. Richard, J. F. Gonthier, A. M. James,
    H. R. McAlexander, A. Kumar, M. Saitow, X. Wang, B. P. Pritchard,
    P. Verma, H. F. Schaefer III, K. Patkowski, R. A. King, E. F. Valeev,
    F. A. Evangelista, J. M. Turney, T. D. Crawford, and C. D. Sherrill,
    J. Chem. Theory Comput. 13(7) pp 3185--3197 (2017).
    (doi: 10.1021/acs.jctc.7b00174)


                         Additional Contributions by
    P. Kraus, H. Kruse, M. H. Lechner, M. C. Schieber, R. A. Shaw,
    A. Alenaizan, R. Galvelis, Z. L. Glick, S. Lehtola, and J. P. Misiewicz

    -----------------------------------------------------------------------


    Psi4 started on: Monday, 25 November 2019 09:37PM

    Process ID: 5407
    Host:       ws-b14-mmd
    PSIDATADIR: /home/mmd01986/anaconda3/envs/psi4/share/psi4
    Memory:     500.0 MiB
    Threads:    1
    
  ==> Input File <==

--------------------------------------------------------------------------

# PYTHONPATH must include directory above plugin directory.
#     Define either externally or here, then import plugin.
memory 16 GB
sys.path.insert(0, './..')
import xtensor

#molecule {
#pubchem:formaldehyde
#symmetry c1
#}
molecule {
O
H 1 R
H 1 R 2 A

R = 1.1
A = 104.0
symmetry c1
}

set {
  basis sto-3g
}

set ddcc {
  print 1
}
set reference uhf
set scf_type pk
set mp2_type conv
set E_CONVERGENCE 10
set D_CONVERGENCE 10

e = energy('myccsd')
#er = energy('scf')
#e1 = energy('mp2')
#print("MP2 Energy (Psi4) ",e1 - er)
#e2 = energy('ccsd')
#e3 = energy('ccsd(t)')
#print("CCSD Energy (Psi4) ",e2 - er)
#print("(T) Energy (Psi4) ",e3 - e2)
--------------------------------------------------------------------------

  Memory set to  14.901 GiB by Python driver.

*** tstart() called on ws-b14-mmd
*** at Mon Nov 25 21:37:41 2019

   => Loading Basis Set <=

    Name: STO-3G
    Role: ORBITAL
    Keyword: BASIS
    atoms 1   entry O          line    81 file /home/mmd01986/anaconda3/envs/psi4/share/psi4/basis/sto-3g.gbs 
    atoms 2-3 entry H          line    19 file /home/mmd01986/anaconda3/envs/psi4/share/psi4/basis/sto-3g.gbs 


         ---------------------------------------------------------
                                   SCF
               by Justin Turney, Rob Parrish, Andy Simmonett
                          and Daniel G. A. Smith
                              UHF Reference
                        1 Threads,  15258 MiB Core
         ---------------------------------------------------------

  ==> Geometry <==

    Molecular point group: c1
    Full point group: C2v

    Geometry (in Angstrom), charge = 0, multiplicity = 1:

       Center              X                  Y                   Z               Mass       
    ------------   -----------------  -----------------  -----------------  -----------------
         O            0.000000000000     0.000000000000    -0.075791843599    15.994914619570
         H            0.000000000000    -0.866811828967     0.601435779259     1.007825032230
         H            0.000000000000     0.866811828967     0.601435779259     1.007825032230

  Running in c1 symmetry.

  Rotational constants: A =     20.53324  B =     11.13094  C =      7.21807 [cm^-1]
  Rotational constants: A = 615570.98071  B = 333697.07813  C = 216392.23582 [MHz]
  Nuclear repulsion =    8.002366482173422

  Charge       = 0
  Multiplicity = 1
  Electrons    = 10
  Nalpha       = 5
  Nbeta        = 5

  ==> Algorithm <==

  SCF Algorithm Type is PK.
  DIIS enabled.
  MOM disabled.
  Fractional occupation disabled.
  Guess Type is SAD.
  Energy threshold   = 1.00e-10
  Density threshold  = 1.00e-10
  Integral threshold = 0.00e+00

  ==> Primary Basis <==

  Basis Set: STO-3G
    Blend: STO-3G
    Number of shells: 5
    Number of basis function: 7
    Number of Cartesian functions: 7
    Spherical Harmonics?: true
    Max angular momentum: 1

  ==> Pre-Iterations <==

   -------------------------------------------------------
    Irrep   Nso     Nmo     Nalpha   Nbeta   Ndocc  Nsocc
   -------------------------------------------------------
     A          7       7       0       0       0       0
   -------------------------------------------------------
    Total       7       7       5       5       5       0
   -------------------------------------------------------

  ==> Integral Setup <==

  Using in-core PK algorithm.
   Calculation information:
      Number of atoms:                   3
      Number of AO shells:               5
      Number of primitives:             15
      Number of atomic orbitals:         7
      Number of basis functions:         7

      Integral cutoff                 1.00e-12
      Number of threads:                 1

  Performing in-core PK
  Using 812 doubles for integral storage.
  We computed 120 shell quartets total.
  Whereas there are 120 unique shell quartets.

  ==> DiskJK: Disk-Based J/K Matrices <==

    J tasked:                  Yes
    K tasked:                  Yes
    wK tasked:                  No
    Memory [MiB]:            11444
    Schwarz Cutoff:          1E-12

    OpenMP threads:              1

  Minimum eigenvalue in the overlap matrix is 4.3422219609E-01.
  Using Symmetric Orthogonalization.

  SCF Guess: Superposition of Atomic Densities via on-the-fly atomic UHF.

  ==> Iterations <==

                        Total Energy        Delta E     RMS |[F,P]|

   @UHF iter SAD:   -73.91840937239937   -7.39184e+01   0.00000e+00 
   @UHF iter   1:   -74.87336465594271   -9.54955e-01   3.97455e-02 DIIS
   @UHF iter   2:   -74.93987676125178   -6.65121e-02   8.33002e-03 DIIS
   @UHF iter   3:   -74.94198779297382   -2.11103e-03   1.41873e-03 DIIS
   @UHF iter   4:   -74.94207838071330   -9.05877e-05   1.30976e-04 DIIS
   @UHF iter   5:   -74.94207981227558   -1.43156e-06   3.00931e-05 DIIS
   @UHF iter   6:   -74.94207989866894   -8.63934e-08   3.83470e-07 DIIS
   @UHF iter   7:   -74.94207989868093   -1.19940e-11   1.48346e-09 DIIS
   @UHF iter   8:   -74.94207989868097   -4.26326e-14   6.38578e-12 DIIS
  Energy and wave function converged.


  ==> Post-Iterations <==

   @Spin Contamination Metric:  -6.217248938E-15
   @S^2 Expected:                0.000000000E+00
   @S^2 Observed:               -6.217248938E-15
   @S   Expected:                0.000000000E+00
   @S   Observed:                0.000000000E+00

    Orbital Energies [Eh]
    ---------------------

    Alpha Occupied:                                                       

       1A    -20.262892     2A     -1.209697     3A     -0.547965  
       4A     -0.436527     5A     -0.387587  

    Alpha Virtual:                                                        

       6A      0.477619     7A      0.588139  

    Beta Occupied:                                                        

       1A    -20.262892     2A     -1.209697     3A     -0.547965  
       4A     -0.436527     5A     -0.387587  

    Beta Virtual:                                                         

       6A      0.477619     7A      0.588139  

    Final Occupation by Irrep:
              A 
    DOCC [     5 ]
    SOCC [     0 ]

  @UHF Final Energy:   -74.94207989868097

   => Energetics <=

    Nuclear Repulsion Energy =              8.0023664821734215
    One-Electron Energy =                -120.1995577633490626
    Two-Electron Energy =                  37.2551113824946682
    Total Energy =                        -74.9420798986809586

  UHF NO Occupations:
  HONO-2 :    3  A 2.0000000
  HONO-1 :    4  A 2.0000000
  HONO-0 :    5  A 2.0000000
  LUNO+0 :    6  A 0.0000000
  LUNO+1 :    7  A -0.0000000


Computation Completed


Properties will be evaluated at   0.000000,   0.000000,   0.000000 [a0]

Properties computed using the SCF density matrix

  Nuclear Dipole Moment: [e a0]
     X:     0.0000      Y:     0.0000      Z:     1.1273

  Electronic Dipole Moment: [e a0]
     X:     0.0000      Y:     0.0000      Z:    -0.5238

  Dipole Moment: [e a0]
     X:     0.0000      Y:     0.0000      Z:     0.6035     Total:     0.6035

  Dipole Moment: [D]
     X:     0.0000      Y:     0.0000      Z:     1.5340     Total:     1.5340


*** tstop() called on ws-b14-mmd at Mon Nov 25 21:37:41 2019
Module time:
	user time   =       0.41 seconds =       0.01 minutes
	system time =       0.01 seconds =       0.00 minutes
	total time  =          0 seconds =       0.00 minutes
Total time:
	user time   =       0.41 seconds =       0.01 minutes
	system time =       0.01 seconds =       0.00 minutes
	total time  =          0 seconds =       0.00 minutes
 MINTS: Wrapper to libmints.
   by Justin Turney

   Calculation information:
      Number of threads:                 1
      Number of atoms:                   3
      Number of AO shells:               5
      Number of SO shells:               5
      Number of primitives:             15
      Number of atomic orbitals:         7
      Number of basis functions:         7

      Number of irreps:                  1
      Integral cutoff                 0.00e+00
      Number of functions per irrep: [   7 ]

 OEINTS: Overlap, kinetic, potential, dipole, and quadrupole integrals
         stored in file 35.

      Computing two-electron integrals...done
      Computed 231 non-zero two-electron integrals.
        Stored in file 33.


Reading options from the CCSD block
Calling plugin ccsd.so.



    Psi4 stopped on: Monday, 25 November 2019 09:37PM
    Psi4 wall time for execution: 0:00:00.53

*** Psi4 exiting successfully. Buy a developer a beer!
