
Host: ws-b14-mmd

Timers On : Sat Dec 14 16:07:46 2019
Timers Off: Sat Dec 14 16:08:04 2019

Wall Time:       17.84 seconds

                                                       Time (seconds)
Module                                       User      System        Wall        Calls

--------------------------------------------------------------------------------------

**************************************************************************************

Host: ws-b14-mmd

Timers On : Sat Dec 14 16:08:12 2019
Timers Off: Sat Dec 14 16:08:13 2019

Wall Time:        1.33 seconds

                                                       Time (seconds)
Module                                       User      System        Wall        Calls
Total PK formation time             :      0.050u      0.000s      0.028w      1 calls
HF: Form core H                     :      0.000u      0.000s      0.001w      1 calls
HF: Form S/X                        :      0.000u      0.000s      0.000w      1 calls
HF: Guess                           :      0.250u      0.000s      0.150w      1 calls
SAD Guess                           :      0.233u      0.000s      0.140w      1 calls
HF: Form G                          :      0.000u      0.000s      0.000w      7 calls
JK: D                               :      0.000u      0.000s      0.000w      7 calls
JK: USO2AO                          :      0.000u      0.000s      0.000w      7 calls
JK: JK                              :      0.000u      0.000s      0.000w      7 calls
PK computes JK                      :      0.000u      0.000s      0.000w      7 calls
JK: AO2USO                          :      0.000u      0.000s      0.000w      7 calls
HF: Form F                          :      0.000u      0.000s      0.000w      7 calls
HF: Form D                          :      0.000u      0.000s      0.000w      7 calls
HF: DIIS                            :      0.000u      0.000s      0.003w      6 calls
DIISManager::add_entry              :      0.000u      0.000s      0.000w      6 calls
DIISManager::extrapolate            :      0.000u      0.000s      0.000w      6 calls
bMatrix setup                       :      0.000u      0.000s      0.000w      6 calls
bMatrix pseudoinverse               :      0.000u      0.000s      0.000w      6 calls
New vector                          :      0.000u      0.000s      0.000w      6 calls
HF: Form C                          :      0.000u      0.000s      0.000w      6 calls

--------------------------------------------------------------------------------------
Total PK formation time             :      0.050u      0.000s      0.028w      1 calls
HF: Form core H                     :      0.000u      0.000s      0.001w      1 calls
HF: Form S/X                        :      0.000u      0.000s      0.000w      1 calls
HF: Guess                           :      0.250u      0.000s      0.150w      1 calls
| SAD Guess                         :      0.233u      0.000s      0.140w      1 calls
HF: Form G                          :      0.000u      0.000s      0.000w      7 calls
| JK: D                             :      0.000u      0.000s      0.000w      7 calls
| JK: USO2AO                        :      0.000u      0.000s      0.000w      7 calls
| JK: JK                            :      0.000u      0.000s      0.000w      7 calls
| | PK computes JK                  :      0.000u      0.000s      0.000w      7 calls
| JK: AO2USO                        :      0.000u      0.000s      0.000w      7 calls
HF: Form F                          :      0.000u      0.000s      0.000w      7 calls
HF: Form D                          :      0.000u      0.000s      0.000w      7 calls
HF: DIIS                            :      0.000u      0.000s      0.003w      6 calls
| DIISManager::add_entry            :      0.000u      0.000s      0.000w      6 calls
| DIISManager::extrapolate          :      0.000u      0.000s      0.000w      6 calls
| | bMatrix setup                   :      0.000u      0.000s      0.000w      6 calls
| | bMatrix pseudoinverse           :      0.000u      0.000s      0.000w      6 calls
| | New vector                      :      0.000u      0.000s      0.000w      6 calls
HF: Form C                          :      0.000u      0.000s      0.000w      6 calls

**************************************************************************************

Host: ws-b14-mmd

Timers On : Sat Dec 14 16:16:58 2019
Timers Off: Sat Dec 14 16:16:59 2019

Wall Time:        1.34 seconds

                                                       Time (seconds)
Module                                       User      System        Wall        Calls
Total PK formation time             :      0.050u      0.000s      0.028w      1 calls
HF: Form core H                     :      0.000u      0.000s      0.001w      1 calls
HF: Form S/X                        :      0.000u      0.000s      0.000w      1 calls
HF: Guess                           :      0.250u      0.000s      0.152w      1 calls
SAD Guess                           :      0.233u      0.000s      0.141w      1 calls
HF: Form G                          :      0.000u      0.000s      0.000w      7 calls
JK: D                               :      0.000u      0.000s      0.000w      7 calls
JK: USO2AO                          :      0.000u      0.000s      0.000w      7 calls
JK: JK                              :      0.000u      0.000s      0.000w      7 calls
PK computes JK                      :      0.000u      0.000s      0.000w      7 calls
JK: AO2USO                          :      0.000u      0.000s      0.000w      7 calls
HF: Form F                          :      0.000u      0.000s      0.000w      7 calls
HF: Form D                          :      0.000u      0.000s      0.000w      7 calls
HF: DIIS                            :      0.017u      0.000s      0.003w      6 calls
DIISManager::add_entry              :      0.000u      0.000s      0.000w      6 calls
DIISManager::extrapolate            :      0.000u      0.000s      0.000w      6 calls
bMatrix setup                       :      0.000u      0.000s      0.000w      6 calls
bMatrix pseudoinverse               :      0.000u      0.000s      0.000w      6 calls
New vector                          :      0.000u      0.000s      0.000w      6 calls
HF: Form C                          :      0.000u      0.000s      0.000w      6 calls

--------------------------------------------------------------------------------------
Total PK formation time             :      0.050u      0.000s      0.028w      1 calls
HF: Form core H                     :      0.000u      0.000s      0.001w      1 calls
HF: Form S/X                        :      0.000u      0.000s      0.000w      1 calls
HF: Guess                           :      0.250u      0.000s      0.152w      1 calls
| SAD Guess                         :      0.233u      0.000s      0.141w      1 calls
HF: Form G                          :      0.000u      0.000s      0.000w      7 calls
| JK: D                             :      0.000u      0.000s      0.000w      7 calls
| JK: USO2AO                        :      0.000u      0.000s      0.000w      7 calls
| JK: JK                            :      0.000u      0.000s      0.000w      7 calls
| | PK computes JK                  :      0.000u      0.000s      0.000w      7 calls
| JK: AO2USO                        :      0.000u      0.000s      0.000w      7 calls
HF: Form F                          :      0.000u      0.000s      0.000w      7 calls
HF: Form D                          :      0.000u      0.000s      0.000w      7 calls
HF: DIIS                            :      0.017u      0.000s      0.003w      6 calls
| DIISManager::add_entry            :      0.000u      0.000s      0.000w      6 calls
| DIISManager::extrapolate          :      0.000u      0.000s      0.000w      6 calls
| | bMatrix setup                   :      0.000u      0.000s      0.000w      6 calls
| | bMatrix pseudoinverse           :      0.000u      0.000s      0.000w      6 calls
| | New vector                      :      0.000u      0.000s      0.000w      6 calls
HF: Form C                          :      0.000u      0.000s      0.000w      6 calls

**************************************************************************************

Host: ws-b14-mmd

Timers On : Sat Dec 14 16:17:53 2019
Timers Off: Sat Dec 14 16:17:55 2019

Wall Time:        1.50 seconds

                                                       Time (seconds)
Module                                       User      System        Wall        Calls
Total PK formation time             :      0.050u      0.000s      0.028w      1 calls
HF: Form core H                     :      0.000u      0.000s      0.002w      1 calls
HF: Form S/X                        :      0.000u      0.000s      0.000w      1 calls
HF: Guess                           :      0.250u      0.017s      0.155w      1 calls
SAD Guess                           :      0.233u      0.000s      0.144w      1 calls
HF: Form G                          :      0.000u      0.000s      0.000w      7 calls
JK: D                               :      0.000u      0.000s      0.000w      7 calls
JK: USO2AO                          :      0.000u      0.000s      0.000w      7 calls
JK: JK                              :      0.000u      0.000s      0.000w      7 calls
PK computes JK                      :      0.000u      0.000s      0.000w      7 calls
JK: AO2USO                          :      0.000u      0.000s      0.000w      7 calls
HF: Form F                          :      0.000u      0.000s      0.000w      7 calls
HF: Form D                          :      0.000u      0.000s      0.000w      7 calls
HF: DIIS                            :      0.017u      0.000s      0.003w      6 calls
DIISManager::add_entry              :      0.000u      0.000s      0.000w      6 calls
DIISManager::extrapolate            :      0.000u      0.000s      0.000w      6 calls
bMatrix setup                       :      0.000u      0.000s      0.000w      6 calls
bMatrix pseudoinverse               :      0.000u      0.000s      0.000w      6 calls
New vector                          :      0.000u      0.000s      0.000w      6 calls
HF: Form C                          :      0.000u      0.000s      0.000w      6 calls

--------------------------------------------------------------------------------------
Total PK formation time             :      0.050u      0.000s      0.028w      1 calls
HF: Form core H                     :      0.000u      0.000s      0.002w      1 calls
HF: Form S/X                        :      0.000u      0.000s      0.000w      1 calls
HF: Guess                           :      0.250u      0.017s      0.155w      1 calls
| SAD Guess                         :      0.233u      0.000s      0.144w      1 calls
HF: Form G                          :      0.000u      0.000s      0.000w      7 calls
| JK: D                             :      0.000u      0.000s      0.000w      7 calls
| JK: USO2AO                        :      0.000u      0.000s      0.000w      7 calls
| JK: JK                            :      0.000u      0.000s      0.000w      7 calls
| | PK computes JK                  :      0.000u      0.000s      0.000w      7 calls
| JK: AO2USO                        :      0.000u      0.000s      0.000w      7 calls
HF: Form F                          :      0.000u      0.000s      0.000w      7 calls
HF: Form D                          :      0.000u      0.000s      0.000w      7 calls
HF: DIIS                            :      0.017u      0.000s      0.003w      6 calls
| DIISManager::add_entry            :      0.000u      0.000s      0.000w      6 calls
| DIISManager::extrapolate          :      0.000u      0.000s      0.000w      6 calls
| | bMatrix setup                   :      0.000u      0.000s      0.000w      6 calls
| | bMatrix pseudoinverse           :      0.000u      0.000s      0.000w      6 calls
| | New vector                      :      0.000u      0.000s      0.000w      6 calls
HF: Form C                          :      0.000u      0.000s      0.000w      6 calls

**************************************************************************************

Host: ws-b14-mmd

Timers On : Sat Dec 14 16:18:54 2019
Timers Off: Sat Dec 14 16:18:56 2019

Wall Time:        1.58 seconds

                                                       Time (seconds)
Module                                       User      System        Wall        Calls
Total PK formation time             :      0.033u      0.000s      0.028w      1 calls
HF: Form core H                     :      0.000u      0.000s      0.004w      1 calls
HF: Form S/X                        :      0.000u      0.000s      0.000w      1 calls
HF: Guess                           :      0.283u      0.017s      0.167w      1 calls
SAD Guess                           :      0.250u      0.017s      0.147w      1 calls
HF: Form G                          :      0.000u      0.000s      0.000w      7 calls
JK: D                               :      0.000u      0.000s      0.000w      7 calls
JK: USO2AO                          :      0.000u      0.000s      0.000w      7 calls
JK: JK                              :      0.000u      0.000s      0.000w      7 calls
PK computes JK                      :      0.000u      0.000s      0.000w      7 calls
JK: AO2USO                          :      0.000u      0.000s      0.000w      7 calls
HF: Form F                          :      0.000u      0.000s      0.000w      7 calls
HF: Form D                          :      0.000u      0.000s      0.000w      7 calls
HF: DIIS                            :      0.017u      0.000s      0.003w      6 calls
DIISManager::add_entry              :      0.000u      0.000s      0.000w      6 calls
DIISManager::extrapolate            :      0.000u      0.000s      0.000w      6 calls
bMatrix setup                       :      0.000u      0.000s      0.000w      6 calls
bMatrix pseudoinverse               :      0.000u      0.000s      0.000w      6 calls
New vector                          :      0.000u      0.000s      0.000w      6 calls
HF: Form C                          :      0.000u      0.000s      0.000w      6 calls

--------------------------------------------------------------------------------------
Total PK formation time             :      0.033u      0.000s      0.028w      1 calls
HF: Form core H                     :      0.000u      0.000s      0.004w      1 calls
HF: Form S/X                        :      0.000u      0.000s      0.000w      1 calls
HF: Guess                           :      0.283u      0.017s      0.167w      1 calls
| SAD Guess                         :      0.250u      0.017s      0.147w      1 calls
HF: Form G                          :      0.000u      0.000s      0.000w      7 calls
| JK: D                             :      0.000u      0.000s      0.000w      7 calls
| JK: USO2AO                        :      0.000u      0.000s      0.000w      7 calls
| JK: JK                            :      0.000u      0.000s      0.000w      7 calls
| | PK computes JK                  :      0.000u      0.000s      0.000w      7 calls
| JK: AO2USO                        :      0.000u      0.000s      0.000w      7 calls
HF: Form F                          :      0.000u      0.000s      0.000w      7 calls
HF: Form D                          :      0.000u      0.000s      0.000w      7 calls
HF: DIIS                            :      0.017u      0.000s      0.003w      6 calls
| DIISManager::add_entry            :      0.000u      0.000s      0.000w      6 calls
| DIISManager::extrapolate          :      0.000u      0.000s      0.000w      6 calls
| | bMatrix setup                   :      0.000u      0.000s      0.000w      6 calls
| | bMatrix pseudoinverse           :      0.000u      0.000s      0.000w      6 calls
| | New vector                      :      0.000u      0.000s      0.000w      6 calls
HF: Form C                          :      0.000u      0.000s      0.000w      6 calls

**************************************************************************************

Host: ws-b14-mmd

Timers On : Sat Dec 14 16:19:37 2019
Timers Off: Sat Dec 14 16:19:40 2019

Wall Time:        2.73 seconds

                                                       Time (seconds)
Module                                       User      System        Wall        Calls
Total PK formation time             :      0.050u      0.000s      0.032w      1 calls
HF: Form core H                     :      0.000u      0.000s      0.001w      1 calls
HF: Form S/X                        :      0.000u      0.000s      0.000w      1 calls
HF: Guess                           :      0.250u      0.017s      0.157w      1 calls
SAD Guess                           :      0.233u      0.017s      0.147w      1 calls
HF: Form G                          :      0.000u      0.000s      0.000w      7 calls
JK: D                               :      0.000u      0.000s      0.000w      7 calls
JK: USO2AO                          :      0.000u      0.000s      0.000w      7 calls
JK: JK                              :      0.000u      0.000s      0.000w      7 calls
PK computes JK                      :      0.000u      0.000s      0.000w      7 calls
JK: AO2USO                          :      0.000u      0.000s      0.000w      7 calls
HF: Form F                          :      0.000u      0.000s      0.000w      7 calls
HF: Form D                          :      0.000u      0.000s      0.000w      7 calls
HF: DIIS                            :      0.000u      0.000s      0.003w      6 calls
DIISManager::add_entry              :      0.000u      0.000s      0.000w      6 calls
DIISManager::extrapolate            :      0.000u      0.000s      0.000w      6 calls
bMatrix setup                       :      0.000u      0.000s      0.000w      6 calls
bMatrix pseudoinverse               :      0.000u      0.000s      0.000w      6 calls
New vector                          :      0.000u      0.000s      0.000w      6 calls
HF: Form C                          :      0.000u      0.000s      0.000w      6 calls

--------------------------------------------------------------------------------------
Total PK formation time             :      0.050u      0.000s      0.032w      1 calls
HF: Form core H                     :      0.000u      0.000s      0.001w      1 calls
HF: Form S/X                        :      0.000u      0.000s      0.000w      1 calls
HF: Guess                           :      0.250u      0.017s      0.157w      1 calls
| SAD Guess                         :      0.233u      0.017s      0.147w      1 calls
HF: Form G                          :      0.000u      0.000s      0.000w      7 calls
| JK: D                             :      0.000u      0.000s      0.000w      7 calls
| JK: USO2AO                        :      0.000u      0.000s      0.000w      7 calls
| JK: JK                            :      0.000u      0.000s      0.000w      7 calls
| | PK computes JK                  :      0.000u      0.000s      0.000w      7 calls
| JK: AO2USO                        :      0.000u      0.000s      0.000w      7 calls
HF: Form F                          :      0.000u      0.000s      0.000w      7 calls
HF: Form D                          :      0.000u      0.000s      0.000w      7 calls
HF: DIIS                            :      0.000u      0.000s      0.003w      6 calls
| DIISManager::add_entry            :      0.000u      0.000s      0.000w      6 calls
| DIISManager::extrapolate          :      0.000u      0.000s      0.000w      6 calls
| | bMatrix setup                   :      0.000u      0.000s      0.000w      6 calls
| | bMatrix pseudoinverse           :      0.000u      0.000s      0.000w      6 calls
| | New vector                      :      0.000u      0.000s      0.000w      6 calls
HF: Form C                          :      0.000u      0.000s      0.000w      6 calls

**************************************************************************************

Host: ws-b14-mmd

Timers On : Sat Dec 14 16:19:54 2019
Timers Off: Sat Dec 14 16:19:55 2019

Wall Time:        1.56 seconds

                                                       Time (seconds)
Module                                       User      System        Wall        Calls
Total PK formation time             :      0.050u      0.000s      0.028w      1 calls
HF: Form core H                     :      0.000u      0.000s      0.001w      1 calls
HF: Form S/X                        :      0.000u      0.000s      0.000w      1 calls
HF: Guess                           :      0.250u      0.017s      0.154w      1 calls
SAD Guess                           :      0.233u      0.000s      0.144w      1 calls
HF: Form G                          :      0.000u      0.000s      0.000w      7 calls
JK: D                               :      0.000u      0.000s      0.000w      7 calls
JK: USO2AO                          :      0.000u      0.000s      0.000w      7 calls
JK: JK                              :      0.000u      0.000s      0.000w      7 calls
PK computes JK                      :      0.000u      0.000s      0.000w      7 calls
JK: AO2USO                          :      0.000u      0.000s      0.000w      7 calls
HF: Form F                          :      0.000u      0.000s      0.000w      7 calls
HF: Form D                          :      0.000u      0.000s      0.000w      7 calls
HF: DIIS                            :      0.000u      0.000s      0.002w      6 calls
DIISManager::add_entry              :      0.000u      0.000s      0.000w      6 calls
DIISManager::extrapolate            :      0.000u      0.000s      0.000w      6 calls
bMatrix setup                       :      0.000u      0.000s      0.000w      6 calls
bMatrix pseudoinverse               :      0.000u      0.000s      0.000w      6 calls
New vector                          :      0.000u      0.000s      0.000w      6 calls
HF: Form C                          :      0.000u      0.000s      0.000w      6 calls

--------------------------------------------------------------------------------------
Total PK formation time             :      0.050u      0.000s      0.028w      1 calls
HF: Form core H                     :      0.000u      0.000s      0.001w      1 calls
HF: Form S/X                        :      0.000u      0.000s      0.000w      1 calls
HF: Guess                           :      0.250u      0.017s      0.154w      1 calls
| SAD Guess                         :      0.233u      0.000s      0.144w      1 calls
HF: Form G                          :      0.000u      0.000s      0.000w      7 calls
| JK: D                             :      0.000u      0.000s      0.000w      7 calls
| JK: USO2AO                        :      0.000u      0.000s      0.000w      7 calls
| JK: JK                            :      0.000u      0.000s      0.000w      7 calls
| | PK computes JK                  :      0.000u      0.000s      0.000w      7 calls
| JK: AO2USO                        :      0.000u      0.000s      0.000w      7 calls
HF: Form F                          :      0.000u      0.000s      0.000w      7 calls
HF: Form D                          :      0.000u      0.000s      0.000w      7 calls
HF: DIIS                            :      0.000u      0.000s      0.002w      6 calls
| DIISManager::add_entry            :      0.000u      0.000s      0.000w      6 calls
| DIISManager::extrapolate          :      0.000u      0.000s      0.000w      6 calls
| | bMatrix setup                   :      0.000u      0.000s      0.000w      6 calls
| | bMatrix pseudoinverse           :      0.000u      0.000s      0.000w      6 calls
| | New vector                      :      0.000u      0.000s      0.000w      6 calls
HF: Form C                          :      0.000u      0.000s      0.000w      6 calls

**************************************************************************************

Host: ws-b14-mmd

Timers On : Sat Dec 14 16:23:08 2019
Timers Off: Sat Dec 14 16:23:10 2019

Wall Time:        1.48 seconds

                                                       Time (seconds)
Module                                       User      System        Wall        Calls
Total PK formation time             :      0.050u      0.000s      0.030w      1 calls
HF: Form core H                     :      0.000u      0.000s      0.002w      1 calls
HF: Form S/X                        :      0.000u      0.000s      0.000w      1 calls
HF: Guess                           :      0.233u      0.000s      0.150w      1 calls
SAD Guess                           :      0.217u      0.000s      0.140w      1 calls
HF: Form G                          :      0.000u      0.000s      0.000w      7 calls
JK: D                               :      0.000u      0.000s      0.000w      7 calls
JK: USO2AO                          :      0.000u      0.000s      0.000w      7 calls
JK: JK                              :      0.000u      0.000s      0.000w      7 calls
PK computes JK                      :      0.000u      0.000s      0.000w      7 calls
JK: AO2USO                          :      0.000u      0.000s      0.000w      7 calls
HF: Form F                          :      0.000u      0.000s      0.000w      7 calls
HF: Form D                          :      0.000u      0.000s      0.000w      7 calls
HF: DIIS                            :      0.000u      0.000s      0.003w      6 calls
DIISManager::add_entry              :      0.000u      0.000s      0.000w      6 calls
DIISManager::extrapolate            :      0.000u      0.000s      0.000w      6 calls
bMatrix setup                       :      0.000u      0.000s      0.000w      6 calls
bMatrix pseudoinverse               :      0.000u      0.000s      0.000w      6 calls
New vector                          :      0.000u      0.000s      0.000w      6 calls
HF: Form C                          :      0.000u      0.000s      0.000w      6 calls

--------------------------------------------------------------------------------------
Total PK formation time             :      0.050u      0.000s      0.030w      1 calls
HF: Form core H                     :      0.000u      0.000s      0.002w      1 calls
HF: Form S/X                        :      0.000u      0.000s      0.000w      1 calls
HF: Guess                           :      0.233u      0.000s      0.150w      1 calls
| SAD Guess                         :      0.217u      0.000s      0.140w      1 calls
HF: Form G                          :      0.000u      0.000s      0.000w      7 calls
| JK: D                             :      0.000u      0.000s      0.000w      7 calls
| JK: USO2AO                        :      0.000u      0.000s      0.000w      7 calls
| JK: JK                            :      0.000u      0.000s      0.000w      7 calls
| | PK computes JK                  :      0.000u      0.000s      0.000w      7 calls
| JK: AO2USO                        :      0.000u      0.000s      0.000w      7 calls
HF: Form F                          :      0.000u      0.000s      0.000w      7 calls
HF: Form D                          :      0.000u      0.000s      0.000w      7 calls
HF: DIIS                            :      0.000u      0.000s      0.003w      6 calls
| DIISManager::add_entry            :      0.000u      0.000s      0.000w      6 calls
| DIISManager::extrapolate          :      0.000u      0.000s      0.000w      6 calls
| | bMatrix setup                   :      0.000u      0.000s      0.000w      6 calls
| | bMatrix pseudoinverse           :      0.000u      0.000s      0.000w      6 calls
| | New vector                      :      0.000u      0.000s      0.000w      6 calls
HF: Form C                          :      0.000u      0.000s      0.000w      6 calls

**************************************************************************************

Host: ws-b14-mmd

Timers On : Sat Dec 14 16:23:26 2019
Timers Off: Sat Dec 14 16:23:28 2019

Wall Time:        1.60 seconds

                                                       Time (seconds)
Module                                       User      System        Wall        Calls
Total PK formation time             :      0.050u      0.000s      0.028w      1 calls
HF: Form core H                     :      0.000u      0.000s      0.004w      1 calls
HF: Form S/X                        :      0.000u      0.000s      0.000w      1 calls
HF: Guess                           :      0.267u      0.000s      0.161w      1 calls
SAD Guess                           :      0.250u      0.000s      0.145w      1 calls
HF: Form G                          :      0.000u      0.000s      0.000w      7 calls
JK: D                               :      0.000u      0.000s      0.000w      7 calls
JK: USO2AO                          :      0.000u      0.000s      0.000w      7 calls
JK: JK                              :      0.000u      0.000s      0.000w      7 calls
PK computes JK                      :      0.000u      0.000s      0.000w      7 calls
JK: AO2USO                          :      0.000u      0.000s      0.000w      7 calls
HF: Form F                          :      0.000u      0.000s      0.000w      7 calls
HF: Form D                          :      0.000u      0.000s      0.000w      7 calls
HF: DIIS                            :      0.017u      0.000s      0.003w      6 calls
DIISManager::add_entry              :      0.000u      0.000s      0.000w      6 calls
DIISManager::extrapolate            :      0.000u      0.000s      0.000w      6 calls
bMatrix setup                       :      0.000u      0.000s      0.000w      6 calls
bMatrix pseudoinverse               :      0.000u      0.000s      0.000w      6 calls
New vector                          :      0.000u      0.000s      0.000w      6 calls
HF: Form C                          :      0.000u      0.000s      0.000w      6 calls

--------------------------------------------------------------------------------------
Total PK formation time             :      0.050u      0.000s      0.028w      1 calls
HF: Form core H                     :      0.000u      0.000s      0.004w      1 calls
HF: Form S/X                        :      0.000u      0.000s      0.000w      1 calls
HF: Guess                           :      0.267u      0.000s      0.161w      1 calls
| SAD Guess                         :      0.250u      0.000s      0.145w      1 calls
HF: Form G                          :      0.000u      0.000s      0.000w      7 calls
| JK: D                             :      0.000u      0.000s      0.000w      7 calls
| JK: USO2AO                        :      0.000u      0.000s      0.000w      7 calls
| JK: JK                            :      0.000u      0.000s      0.000w      7 calls
| | PK computes JK                  :      0.000u      0.000s      0.000w      7 calls
| JK: AO2USO                        :      0.000u      0.000s      0.000w      7 calls
HF: Form F                          :      0.000u      0.000s      0.000w      7 calls
HF: Form D                          :      0.000u      0.000s      0.000w      7 calls
HF: DIIS                            :      0.017u      0.000s      0.003w      6 calls
| DIISManager::add_entry            :      0.000u      0.000s      0.000w      6 calls
| DIISManager::extrapolate          :      0.000u      0.000s      0.000w      6 calls
| | bMatrix setup                   :      0.000u      0.000s      0.000w      6 calls
| | bMatrix pseudoinverse           :      0.000u      0.000s      0.000w      6 calls
| | New vector                      :      0.000u      0.000s      0.000w      6 calls
HF: Form C                          :      0.000u      0.000s      0.000w      6 calls

**************************************************************************************

Host: ws-b14-mmd

Timers On : Sat Dec 14 16:25:01 2019
Timers Off: Sat Dec 14 16:25:04 2019

Wall Time:        3.23 seconds

                                                       Time (seconds)
Module                                       User      System        Wall        Calls
Total PK formation time             :      0.050u      0.000s      0.028w      1 calls
HF: Form core H                     :      0.000u      0.000s      0.001w      1 calls
HF: Form S/X                        :      0.000u      0.000s      0.000w      1 calls
HF: Guess                           :      0.267u      0.000s      0.164w      1 calls
SAD Guess                           :      0.267u      0.000s      0.153w      1 calls
HF: Form G                          :      0.017u      0.000s      0.000w      7 calls
JK: D                               :      0.000u      0.000s      0.000w      7 calls
JK: USO2AO                          :      0.000u      0.000s      0.000w      7 calls
JK: JK                              :      0.017u      0.000s      0.000w      7 calls
PK computes JK                      :      0.017u      0.000s      0.000w      7 calls
JK: AO2USO                          :      0.000u      0.000s      0.000w      7 calls
HF: Form F                          :      0.000u      0.000s      0.000w      7 calls
HF: Form D                          :      0.000u      0.000s      0.000w      7 calls
HF: DIIS                            :      0.000u      0.000s      0.003w      6 calls
DIISManager::add_entry              :      0.000u      0.000s      0.000w      6 calls
DIISManager::extrapolate            :      0.000u      0.000s      0.000w      6 calls
bMatrix setup                       :      0.000u      0.000s      0.000w      6 calls
bMatrix pseudoinverse               :      0.000u      0.000s      0.000w      6 calls
New vector                          :      0.000u      0.000s      0.000w      6 calls
HF: Form C                          :      0.000u      0.000s      0.000w      6 calls

--------------------------------------------------------------------------------------
Total PK formation time             :      0.050u      0.000s      0.028w      1 calls
HF: Form core H                     :      0.000u      0.000s      0.001w      1 calls
HF: Form S/X                        :      0.000u      0.000s      0.000w      1 calls
HF: Guess                           :      0.267u      0.000s      0.164w      1 calls
| SAD Guess                         :      0.267u      0.000s      0.153w      1 calls
HF: Form G                          :      0.017u      0.000s      0.000w      7 calls
| JK: D                             :      0.000u      0.000s      0.000w      7 calls
| JK: USO2AO                        :      0.000u      0.000s      0.000w      7 calls
| JK: JK                            :      0.017u      0.000s      0.000w      7 calls
| | PK computes JK                  :      0.017u      0.000s      0.000w      7 calls
| JK: AO2USO                        :      0.000u      0.000s      0.000w      7 calls
HF: Form F                          :      0.000u      0.000s      0.000w      7 calls
HF: Form D                          :      0.000u      0.000s      0.000w      7 calls
HF: DIIS                            :      0.000u      0.000s      0.003w      6 calls
| DIISManager::add_entry            :      0.000u      0.000s      0.000w      6 calls
| DIISManager::extrapolate          :      0.000u      0.000s      0.000w      6 calls
| | bMatrix setup                   :      0.000u      0.000s      0.000w      6 calls
| | bMatrix pseudoinverse           :      0.000u      0.000s      0.000w      6 calls
| | New vector                      :      0.000u      0.000s      0.000w      6 calls
HF: Form C                          :      0.000u      0.000s      0.000w      6 calls

**************************************************************************************

Host: ws-b14-mmd

Timers On : Sat Dec 14 16:25:24 2019
Timers Off: Sat Dec 14 16:25:27 2019

Wall Time:        3.13 seconds

                                                       Time (seconds)
Module                                       User      System        Wall        Calls
Total PK formation time             :      0.050u      0.000s      0.031w      1 calls
HF: Form core H                     :      0.000u      0.000s      0.004w      1 calls
HF: Form S/X                        :      0.000u      0.000s      0.000w      1 calls
HF: Guess                           :      0.283u      0.000s      0.169w      1 calls
SAD Guess                           :      0.250u      0.000s      0.147w      1 calls
HF: Form G                          :      0.000u      0.000s      0.000w      7 calls
JK: D                               :      0.000u      0.000s      0.000w      7 calls
JK: USO2AO                          :      0.000u      0.000s      0.000w      7 calls
JK: JK                              :      0.000u      0.000s      0.000w      7 calls
PK computes JK                      :      0.000u      0.000s      0.000w      7 calls
JK: AO2USO                          :      0.000u      0.000s      0.000w      7 calls
HF: Form F                          :      0.000u      0.000s      0.000w      7 calls
HF: Form D                          :      0.000u      0.000s      0.000w      7 calls
HF: DIIS                            :      0.000u      0.000s      0.002w      6 calls
DIISManager::add_entry              :      0.000u      0.000s      0.000w      6 calls
DIISManager::extrapolate            :      0.000u      0.000s      0.000w      6 calls
bMatrix setup                       :      0.000u      0.000s      0.000w      6 calls
bMatrix pseudoinverse               :      0.000u      0.000s      0.000w      6 calls
New vector                          :      0.000u      0.000s      0.000w      6 calls
HF: Form C                          :      0.000u      0.000s      0.000w      6 calls

--------------------------------------------------------------------------------------
Total PK formation time             :      0.050u      0.000s      0.031w      1 calls
HF: Form core H                     :      0.000u      0.000s      0.004w      1 calls
HF: Form S/X                        :      0.000u      0.000s      0.000w      1 calls
HF: Guess                           :      0.283u      0.000s      0.169w      1 calls
| SAD Guess                         :      0.250u      0.000s      0.147w      1 calls
HF: Form G                          :      0.000u      0.000s      0.000w      7 calls
| JK: D                             :      0.000u      0.000s      0.000w      7 calls
| JK: USO2AO                        :      0.000u      0.000s      0.000w      7 calls
| JK: JK                            :      0.000u      0.000s      0.000w      7 calls
| | PK computes JK                  :      0.000u      0.000s      0.000w      7 calls
| JK: AO2USO                        :      0.000u      0.000s      0.000w      7 calls
HF: Form F                          :      0.000u      0.000s      0.000w      7 calls
HF: Form D                          :      0.000u      0.000s      0.000w      7 calls
HF: DIIS                            :      0.000u      0.000s      0.002w      6 calls
| DIISManager::add_entry            :      0.000u      0.000s      0.000w      6 calls
| DIISManager::extrapolate          :      0.000u      0.000s      0.000w      6 calls
| | bMatrix setup                   :      0.000u      0.000s      0.000w      6 calls
| | bMatrix pseudoinverse           :      0.000u      0.000s      0.000w      6 calls
| | New vector                      :      0.000u      0.000s      0.000w      6 calls
HF: Form C                          :      0.000u      0.000s      0.000w      6 calls

**************************************************************************************

Host: ws-b14-mmd

Timers On : Sat Dec 14 16:26:04 2019
Timers Off: Sat Dec 14 16:26:07 2019

Wall Time:        3.22 seconds

                                                       Time (seconds)
Module                                       User      System        Wall        Calls
Total PK formation time             :      0.050u      0.000s      0.027w      1 calls
HF: Form core H                     :      0.000u      0.000s      0.001w      1 calls
HF: Form S/X                        :      0.000u      0.000s      0.000w      1 calls
HF: Guess                           :      0.250u      0.000s      0.149w      1 calls
SAD Guess                           :      0.233u      0.000s      0.139w      1 calls
HF: Form G                          :      0.000u      0.000s      0.000w      7 calls
JK: D                               :      0.000u      0.000s      0.000w      7 calls
JK: USO2AO                          :      0.000u      0.000s      0.000w      7 calls
JK: JK                              :      0.000u      0.000s      0.000w      7 calls
PK computes JK                      :      0.000u      0.000s      0.000w      7 calls
JK: AO2USO                          :      0.000u      0.000s      0.000w      7 calls
HF: Form F                          :      0.000u      0.000s      0.000w      7 calls
HF: Form D                          :      0.000u      0.000s      0.000w      7 calls
HF: DIIS                            :      0.017u      0.000s      0.002w      6 calls
DIISManager::add_entry              :      0.000u      0.000s      0.000w      6 calls
DIISManager::extrapolate            :      0.000u      0.000s      0.000w      6 calls
bMatrix setup                       :      0.000u      0.000s      0.000w      6 calls
bMatrix pseudoinverse               :      0.000u      0.000s      0.000w      6 calls
New vector                          :      0.000u      0.000s      0.000w      6 calls
HF: Form C                          :      0.000u      0.000s      0.000w      6 calls

--------------------------------------------------------------------------------------
Total PK formation time             :      0.050u      0.000s      0.027w      1 calls
HF: Form core H                     :      0.000u      0.000s      0.001w      1 calls
HF: Form S/X                        :      0.000u      0.000s      0.000w      1 calls
HF: Guess                           :      0.250u      0.000s      0.149w      1 calls
| SAD Guess                         :      0.233u      0.000s      0.139w      1 calls
HF: Form G                          :      0.000u      0.000s      0.000w      7 calls
| JK: D                             :      0.000u      0.000s      0.000w      7 calls
| JK: USO2AO                        :      0.000u      0.000s      0.000w      7 calls
| JK: JK                            :      0.000u      0.000s      0.000w      7 calls
| | PK computes JK                  :      0.000u      0.000s      0.000w      7 calls
| JK: AO2USO                        :      0.000u      0.000s      0.000w      7 calls
HF: Form F                          :      0.000u      0.000s      0.000w      7 calls
HF: Form D                          :      0.000u      0.000s      0.000w      7 calls
HF: DIIS                            :      0.017u      0.000s      0.002w      6 calls
| DIISManager::add_entry            :      0.000u      0.000s      0.000w      6 calls
| DIISManager::extrapolate          :      0.000u      0.000s      0.000w      6 calls
| | bMatrix setup                   :      0.000u      0.000s      0.000w      6 calls
| | bMatrix pseudoinverse           :      0.000u      0.000s      0.000w      6 calls
| | New vector                      :      0.000u      0.000s      0.000w      6 calls
HF: Form C                          :      0.000u      0.000s      0.000w      6 calls

**************************************************************************************

Host: ws-b14-mmd

Timers On : Sat Dec 14 16:26:40 2019
Timers Off: Sat Dec 14 16:26:43 2019

Wall Time:        3.28 seconds

                                                       Time (seconds)
Module                                       User      System        Wall        Calls
Total PK formation time             :      0.050u      0.000s      0.028w      1 calls
HF: Form core H                     :      0.000u      0.000s      0.001w      1 calls
HF: Form S/X                        :      0.000u      0.000s      0.000w      1 calls
HF: Guess                           :      0.250u      0.000s      0.154w      1 calls
SAD Guess                           :      0.233u      0.000s      0.144w      1 calls
HF: Form G                          :      0.000u      0.000s      0.000w      7 calls
JK: D                               :      0.000u      0.000s      0.000w      7 calls
JK: USO2AO                          :      0.000u      0.000s      0.000w      7 calls
JK: JK                              :      0.000u      0.000s      0.000w      7 calls
PK computes JK                      :      0.000u      0.000s      0.000w      7 calls
JK: AO2USO                          :      0.000u      0.000s      0.000w      7 calls
HF: Form F                          :      0.000u      0.000s      0.000w      7 calls
HF: Form D                          :      0.000u      0.000s      0.000w      7 calls
HF: DIIS                            :      0.000u      0.000s      0.002w      6 calls
DIISManager::add_entry              :      0.000u      0.000s      0.000w      6 calls
DIISManager::extrapolate            :      0.000u      0.000s      0.000w      6 calls
bMatrix setup                       :      0.000u      0.000s      0.000w      6 calls
bMatrix pseudoinverse               :      0.000u      0.000s      0.000w      6 calls
New vector                          :      0.000u      0.000s      0.000w      6 calls
HF: Form C                          :      0.000u      0.000s      0.000w      6 calls

--------------------------------------------------------------------------------------
Total PK formation time             :      0.050u      0.000s      0.028w      1 calls
HF: Form core H                     :      0.000u      0.000s      0.001w      1 calls
HF: Form S/X                        :      0.000u      0.000s      0.000w      1 calls
HF: Guess                           :      0.250u      0.000s      0.154w      1 calls
| SAD Guess                         :      0.233u      0.000s      0.144w      1 calls
HF: Form G                          :      0.000u      0.000s      0.000w      7 calls
| JK: D                             :      0.000u      0.000s      0.000w      7 calls
| JK: USO2AO                        :      0.000u      0.000s      0.000w      7 calls
| JK: JK                            :      0.000u      0.000s      0.000w      7 calls
| | PK computes JK                  :      0.000u      0.000s      0.000w      7 calls
| JK: AO2USO                        :      0.000u      0.000s      0.000w      7 calls
HF: Form F                          :      0.000u      0.000s      0.000w      7 calls
HF: Form D                          :      0.000u      0.000s      0.000w      7 calls
HF: DIIS                            :      0.000u      0.000s      0.002w      6 calls
| DIISManager::add_entry            :      0.000u      0.000s      0.000w      6 calls
| DIISManager::extrapolate          :      0.000u      0.000s      0.000w      6 calls
| | bMatrix setup                   :      0.000u      0.000s      0.000w      6 calls
| | bMatrix pseudoinverse           :      0.000u      0.000s      0.000w      6 calls
| | New vector                      :      0.000u      0.000s      0.000w      6 calls
HF: Form C                          :      0.000u      0.000s      0.000w      6 calls

**************************************************************************************

Host: ws-b14-mmd

Timers On : Sat Dec 14 16:27:32 2019
Timers Off: Sat Dec 14 16:27:35 2019

Wall Time:        3.18 seconds

                                                       Time (seconds)
Module                                       User      System        Wall        Calls
Total PK formation time             :      0.050u      0.000s      0.028w      1 calls
HF: Form core H                     :      0.000u      0.000s      0.001w      1 calls
HF: Form S/X                        :      0.000u      0.000s      0.000w      1 calls
HF: Guess                           :      0.267u      0.000s      0.161w      1 calls
SAD Guess                           :      0.250u      0.000s      0.149w      1 calls
HF: Form G                          :      0.000u      0.000s      0.000w      7 calls
JK: D                               :      0.000u      0.000s      0.000w      7 calls
JK: USO2AO                          :      0.000u      0.000s      0.000w      7 calls
JK: JK                              :      0.000u      0.000s      0.000w      7 calls
PK computes JK                      :      0.000u      0.000s      0.000w      7 calls
JK: AO2USO                          :      0.000u      0.000s      0.000w      7 calls
HF: Form F                          :      0.000u      0.000s      0.000w      7 calls
HF: Form D                          :      0.000u      0.000s      0.000w      7 calls
HF: DIIS                            :      0.000u      0.000s      0.003w      6 calls
DIISManager::add_entry              :      0.000u      0.000s      0.000w      6 calls
DIISManager::extrapolate            :      0.000u      0.000s      0.000w      6 calls
bMatrix setup                       :      0.000u      0.000s      0.000w      6 calls
bMatrix pseudoinverse               :      0.000u      0.000s      0.000w      6 calls
New vector                          :      0.000u      0.000s      0.000w      6 calls
HF: Form C                          :      0.000u      0.000s      0.000w      6 calls

--------------------------------------------------------------------------------------
Total PK formation time             :      0.050u      0.000s      0.028w      1 calls
HF: Form core H                     :      0.000u      0.000s      0.001w      1 calls
HF: Form S/X                        :      0.000u      0.000s      0.000w      1 calls
HF: Guess                           :      0.267u      0.000s      0.161w      1 calls
| SAD Guess                         :      0.250u      0.000s      0.149w      1 calls
HF: Form G                          :      0.000u      0.000s      0.000w      7 calls
| JK: D                             :      0.000u      0.000s      0.000w      7 calls
| JK: USO2AO                        :      0.000u      0.000s      0.000w      7 calls
| JK: JK                            :      0.000u      0.000s      0.000w      7 calls
| | PK computes JK                  :      0.000u      0.000s      0.000w      7 calls
| JK: AO2USO                        :      0.000u      0.000s      0.000w      7 calls
HF: Form F                          :      0.000u      0.000s      0.000w      7 calls
HF: Form D                          :      0.000u      0.000s      0.000w      7 calls
HF: DIIS                            :      0.000u      0.000s      0.003w      6 calls
| DIISManager::add_entry            :      0.000u      0.000s      0.000w      6 calls
| DIISManager::extrapolate          :      0.000u      0.000s      0.000w      6 calls
| | bMatrix setup                   :      0.000u      0.000s      0.000w      6 calls
| | bMatrix pseudoinverse           :      0.000u      0.000s      0.000w      6 calls
| | New vector                      :      0.000u      0.000s      0.000w      6 calls
HF: Form C                          :      0.000u      0.000s      0.000w      6 calls

**************************************************************************************

Host: ws-b14-mmd

Timers On : Sat Dec 14 16:28:18 2019
Timers Off: Sat Dec 14 16:28:21 2019

Wall Time:        3.21 seconds

                                                       Time (seconds)
Module                                       User      System        Wall        Calls
Total PK formation time             :      0.033u      0.000s      0.028w      1 calls
HF: Form core H                     :      0.000u      0.000s      0.001w      1 calls
HF: Form S/X                        :      0.000u      0.000s      0.000w      1 calls
HF: Guess                           :      0.267u      0.000s      0.154w      1 calls
SAD Guess                           :      0.233u      0.000s      0.144w      1 calls
HF: Form G                          :      0.000u      0.000s      0.000w      7 calls
JK: D                               :      0.000u      0.000s      0.000w      7 calls
JK: USO2AO                          :      0.000u      0.000s      0.000w      7 calls
JK: JK                              :      0.000u      0.000s      0.000w      7 calls
PK computes JK                      :      0.000u      0.000s      0.000w      7 calls
JK: AO2USO                          :      0.000u      0.000s      0.000w      7 calls
HF: Form F                          :      0.000u      0.000s      0.000w      7 calls
HF: Form D                          :      0.000u      0.000s      0.000w      7 calls
HF: DIIS                            :      0.017u      0.000s      0.003w      6 calls
DIISManager::add_entry              :      0.000u      0.000s      0.000w      6 calls
DIISManager::extrapolate            :      0.000u      0.000s      0.000w      6 calls
bMatrix setup                       :      0.000u      0.000s      0.000w      6 calls
bMatrix pseudoinverse               :      0.000u      0.000s      0.000w      6 calls
New vector                          :      0.000u      0.000s      0.000w      6 calls
HF: Form C                          :      0.000u      0.000s      0.000w      6 calls

--------------------------------------------------------------------------------------
Total PK formation time             :      0.033u      0.000s      0.028w      1 calls
HF: Form core H                     :      0.000u      0.000s      0.001w      1 calls
HF: Form S/X                        :      0.000u      0.000s      0.000w      1 calls
HF: Guess                           :      0.267u      0.000s      0.154w      1 calls
| SAD Guess                         :      0.233u      0.000s      0.144w      1 calls
HF: Form G                          :      0.000u      0.000s      0.000w      7 calls
| JK: D                             :      0.000u      0.000s      0.000w      7 calls
| JK: USO2AO                        :      0.000u      0.000s      0.000w      7 calls
| JK: JK                            :      0.000u      0.000s      0.000w      7 calls
| | PK computes JK                  :      0.000u      0.000s      0.000w      7 calls
| JK: AO2USO                        :      0.000u      0.000s      0.000w      7 calls
HF: Form F                          :      0.000u      0.000s      0.000w      7 calls
HF: Form D                          :      0.000u      0.000s      0.000w      7 calls
HF: DIIS                            :      0.017u      0.000s      0.003w      6 calls
| DIISManager::add_entry            :      0.000u      0.000s      0.000w      6 calls
| DIISManager::extrapolate          :      0.000u      0.000s      0.000w      6 calls
| | bMatrix setup                   :      0.000u      0.000s      0.000w      6 calls
| | bMatrix pseudoinverse           :      0.000u      0.000s      0.000w      6 calls
| | New vector                      :      0.000u      0.000s      0.000w      6 calls
HF: Form C                          :      0.000u      0.000s      0.000w      6 calls

**************************************************************************************

Host: ws-b14-mmd

Timers On : Sat Dec 14 16:28:52 2019
Timers Off: Sat Dec 14 16:28:55 2019

Wall Time:        3.18 seconds

                                                       Time (seconds)
Module                                       User      System        Wall        Calls
Total PK formation time             :      0.050u      0.000s      0.027w      1 calls
HF: Form core H                     :      0.000u      0.000s      0.001w      1 calls
HF: Form S/X                        :      0.000u      0.000s      0.000w      1 calls
HF: Guess                           :      0.250u      0.000s      0.150w      1 calls
SAD Guess                           :      0.233u      0.000s      0.139w      1 calls
HF: Form G                          :      0.000u      0.000s      0.000w      7 calls
JK: D                               :      0.000u      0.000s      0.000w      7 calls
JK: USO2AO                          :      0.000u      0.000s      0.000w      7 calls
JK: JK                              :      0.000u      0.000s      0.000w      7 calls
PK computes JK                      :      0.000u      0.000s      0.000w      7 calls
JK: AO2USO                          :      0.000u      0.000s      0.000w      7 calls
HF: Form F                          :      0.000u      0.000s      0.000w      7 calls
HF: Form D                          :      0.000u      0.000s      0.000w      7 calls
HF: DIIS                            :      0.000u      0.000s      0.003w      6 calls
DIISManager::add_entry              :      0.000u      0.000s      0.000w      6 calls
DIISManager::extrapolate            :      0.000u      0.000s      0.000w      6 calls
bMatrix setup                       :      0.000u      0.000s      0.000w      6 calls
bMatrix pseudoinverse               :      0.000u      0.000s      0.000w      6 calls
New vector                          :      0.000u      0.000s      0.000w      6 calls
HF: Form C                          :      0.000u      0.000s      0.000w      6 calls

--------------------------------------------------------------------------------------
Total PK formation time             :      0.050u      0.000s      0.027w      1 calls
HF: Form core H                     :      0.000u      0.000s      0.001w      1 calls
HF: Form S/X                        :      0.000u      0.000s      0.000w      1 calls
HF: Guess                           :      0.250u      0.000s      0.150w      1 calls
| SAD Guess                         :      0.233u      0.000s      0.139w      1 calls
HF: Form G                          :      0.000u      0.000s      0.000w      7 calls
| JK: D                             :      0.000u      0.000s      0.000w      7 calls
| JK: USO2AO                        :      0.000u      0.000s      0.000w      7 calls
| JK: JK                            :      0.000u      0.000s      0.000w      7 calls
| | PK computes JK                  :      0.000u      0.000s      0.000w      7 calls
| JK: AO2USO                        :      0.000u      0.000s      0.000w      7 calls
HF: Form F                          :      0.000u      0.000s      0.000w      7 calls
HF: Form D                          :      0.000u      0.000s      0.000w      7 calls
HF: DIIS                            :      0.000u      0.000s      0.003w      6 calls
| DIISManager::add_entry            :      0.000u      0.000s      0.000w      6 calls
| DIISManager::extrapolate          :      0.000u      0.000s      0.000w      6 calls
| | bMatrix setup                   :      0.000u      0.000s      0.000w      6 calls
| | bMatrix pseudoinverse           :      0.000u      0.000s      0.000w      6 calls
| | New vector                      :      0.000u      0.000s      0.000w      6 calls
HF: Form C                          :      0.000u      0.000s      0.000w      6 calls

**************************************************************************************

Host: ws-b14-mmd

Timers On : Sat Dec 14 16:29:15 2019
Timers Off: Sat Dec 14 16:29:18 2019

Wall Time:        3.15 seconds

                                                       Time (seconds)
Module                                       User      System        Wall        Calls
Total PK formation time             :      0.033u      0.000s      0.027w      1 calls
HF: Form core H                     :      0.000u      0.000s      0.001w      1 calls
HF: Form S/X                        :      0.000u      0.000s      0.000w      1 calls
HF: Guess                           :      0.250u      0.000s      0.150w      1 calls
SAD Guess                           :      0.233u      0.000s      0.139w      1 calls
HF: Form G                          :      0.000u      0.000s      0.000w      7 calls
JK: D                               :      0.000u      0.000s      0.000w      7 calls
JK: USO2AO                          :      0.000u      0.000s      0.000w      7 calls
JK: JK                              :      0.000u      0.000s      0.000w      7 calls
PK computes JK                      :      0.000u      0.000s      0.000w      7 calls
JK: AO2USO                          :      0.000u      0.000s      0.000w      7 calls
HF: Form F                          :      0.000u      0.000s      0.000w      7 calls
HF: Form D                          :      0.000u      0.000s      0.000w      7 calls
HF: DIIS                            :      0.000u      0.000s      0.003w      6 calls
DIISManager::add_entry              :      0.000u      0.000s      0.000w      6 calls
DIISManager::extrapolate            :      0.000u      0.000s      0.000w      6 calls
bMatrix setup                       :      0.000u      0.000s      0.000w      6 calls
bMatrix pseudoinverse               :      0.000u      0.000s      0.000w      6 calls
New vector                          :      0.000u      0.000s      0.000w      6 calls
HF: Form C                          :      0.000u      0.000s      0.000w      6 calls

--------------------------------------------------------------------------------------
Total PK formation time             :      0.033u      0.000s      0.027w      1 calls
HF: Form core H                     :      0.000u      0.000s      0.001w      1 calls
HF: Form S/X                        :      0.000u      0.000s      0.000w      1 calls
HF: Guess                           :      0.250u      0.000s      0.150w      1 calls
| SAD Guess                         :      0.233u      0.000s      0.139w      1 calls
HF: Form G                          :      0.000u      0.000s      0.000w      7 calls
| JK: D                             :      0.000u      0.000s      0.000w      7 calls
| JK: USO2AO                        :      0.000u      0.000s      0.000w      7 calls
| JK: JK                            :      0.000u      0.000s      0.000w      7 calls
| | PK computes JK                  :      0.000u      0.000s      0.000w      7 calls
| JK: AO2USO                        :      0.000u      0.000s      0.000w      7 calls
HF: Form F                          :      0.000u      0.000s      0.000w      7 calls
HF: Form D                          :      0.000u      0.000s      0.000w      7 calls
HF: DIIS                            :      0.000u      0.000s      0.003w      6 calls
| DIISManager::add_entry            :      0.000u      0.000s      0.000w      6 calls
| DIISManager::extrapolate          :      0.000u      0.000s      0.000w      6 calls
| | bMatrix setup                   :      0.000u      0.000s      0.000w      6 calls
| | bMatrix pseudoinverse           :      0.000u      0.000s      0.000w      6 calls
| | New vector                      :      0.000u      0.000s      0.000w      6 calls
HF: Form C                          :      0.000u      0.000s      0.000w      6 calls

**************************************************************************************

Host: ws-b14-mmd

Timers On : Sat Dec 14 16:32:15 2019
Timers Off: Sat Dec 14 16:32:18 2019

Wall Time:        3.19 seconds

                                                       Time (seconds)
Module                                       User      System        Wall        Calls
Total PK formation time             :      0.050u      0.000s      0.029w      1 calls
HF: Form core H                     :      0.000u      0.000s      0.001w      1 calls
HF: Form S/X                        :      0.000u      0.000s      0.000w      1 calls
HF: Guess                           :      0.267u      0.000s      0.154w      1 calls
SAD Guess                           :      0.250u      0.000s      0.144w      1 calls
HF: Form G                          :      0.000u      0.000s      0.000w      7 calls
JK: D                               :      0.000u      0.000s      0.000w      7 calls
JK: USO2AO                          :      0.000u      0.000s      0.000w      7 calls
JK: JK                              :      0.000u      0.000s      0.000w      7 calls
PK computes JK                      :      0.000u      0.000s      0.000w      7 calls
JK: AO2USO                          :      0.000u      0.000s      0.000w      7 calls
HF: Form F                          :      0.000u      0.000s      0.000w      7 calls
HF: Form D                          :      0.000u      0.000s      0.000w      7 calls
HF: DIIS                            :      0.000u      0.000s      0.002w      6 calls
DIISManager::add_entry              :      0.000u      0.000s      0.000w      6 calls
DIISManager::extrapolate            :      0.000u      0.000s      0.000w      6 calls
bMatrix setup                       :      0.000u      0.000s      0.000w      6 calls
bMatrix pseudoinverse               :      0.000u      0.000s      0.000w      6 calls
New vector                          :      0.000u      0.000s      0.000w      6 calls
HF: Form C                          :      0.000u      0.000s      0.000w      6 calls

--------------------------------------------------------------------------------------
Total PK formation time             :      0.050u      0.000s      0.029w      1 calls
HF: Form core H                     :      0.000u      0.000s      0.001w      1 calls
HF: Form S/X                        :      0.000u      0.000s      0.000w      1 calls
HF: Guess                           :      0.267u      0.000s      0.154w      1 calls
| SAD Guess                         :      0.250u      0.000s      0.144w      1 calls
HF: Form G                          :      0.000u      0.000s      0.000w      7 calls
| JK: D                             :      0.000u      0.000s      0.000w      7 calls
| JK: USO2AO                        :      0.000u      0.000s      0.000w      7 calls
| JK: JK                            :      0.000u      0.000s      0.000w      7 calls
| | PK computes JK                  :      0.000u      0.000s      0.000w      7 calls
| JK: AO2USO                        :      0.000u      0.000s      0.000w      7 calls
HF: Form F                          :      0.000u      0.000s      0.000w      7 calls
HF: Form D                          :      0.000u      0.000s      0.000w      7 calls
HF: DIIS                            :      0.000u      0.000s      0.002w      6 calls
| DIISManager::add_entry            :      0.000u      0.000s      0.000w      6 calls
| DIISManager::extrapolate          :      0.000u      0.000s      0.000w      6 calls
| | bMatrix setup                   :      0.000u      0.000s      0.000w      6 calls
| | bMatrix pseudoinverse           :      0.000u      0.000s      0.000w      6 calls
| | New vector                      :      0.000u      0.000s      0.000w      6 calls
HF: Form C                          :      0.000u      0.000s      0.000w      6 calls

**************************************************************************************

Host: ws-b14-mmd

Timers On : Sat Dec 14 16:32:36 2019
Timers Off: Sat Dec 14 16:32:39 2019

Wall Time:        3.18 seconds

                                                       Time (seconds)
Module                                       User      System        Wall        Calls
Total PK formation time             :      0.050u      0.000s      0.027w      1 calls
HF: Form core H                     :      0.000u      0.000s      0.000w      1 calls
HF: Form S/X                        :      0.000u      0.000s      0.000w      1 calls
HF: Guess                           :      0.250u      0.000s      0.154w      1 calls
SAD Guess                           :      0.233u      0.000s      0.143w      1 calls
HF: Form G                          :      0.000u      0.000s      0.000w      7 calls
JK: D                               :      0.000u      0.000s      0.000w      7 calls
JK: USO2AO                          :      0.000u      0.000s      0.000w      7 calls
JK: JK                              :      0.000u      0.000s      0.000w      7 calls
PK computes JK                      :      0.000u      0.000s      0.000w      7 calls
JK: AO2USO                          :      0.000u      0.000s      0.000w      7 calls
HF: Form F                          :      0.000u      0.000s      0.000w      7 calls
HF: Form D                          :      0.000u      0.000s      0.000w      7 calls
HF: DIIS                            :      0.000u      0.000s      0.003w      6 calls
DIISManager::add_entry              :      0.000u      0.000s      0.000w      6 calls
DIISManager::extrapolate            :      0.000u      0.000s      0.000w      6 calls
bMatrix setup                       :      0.000u      0.000s      0.000w      6 calls
bMatrix pseudoinverse               :      0.000u      0.000s      0.000w      6 calls
New vector                          :      0.000u      0.000s      0.000w      6 calls
HF: Form C                          :      0.000u      0.000s      0.000w      6 calls

--------------------------------------------------------------------------------------
Total PK formation time             :      0.050u      0.000s      0.027w      1 calls
HF: Form core H                     :      0.000u      0.000s      0.000w      1 calls
HF: Form S/X                        :      0.000u      0.000s      0.000w      1 calls
HF: Guess                           :      0.250u      0.000s      0.154w      1 calls
| SAD Guess                         :      0.233u      0.000s      0.143w      1 calls
HF: Form G                          :      0.000u      0.000s      0.000w      7 calls
| JK: D                             :      0.000u      0.000s      0.000w      7 calls
| JK: USO2AO                        :      0.000u      0.000s      0.000w      7 calls
| JK: JK                            :      0.000u      0.000s      0.000w      7 calls
| | PK computes JK                  :      0.000u      0.000s      0.000w      7 calls
| JK: AO2USO                        :      0.000u      0.000s      0.000w      7 calls
HF: Form F                          :      0.000u      0.000s      0.000w      7 calls
HF: Form D                          :      0.000u      0.000s      0.000w      7 calls
HF: DIIS                            :      0.000u      0.000s      0.003w      6 calls
| DIISManager::add_entry            :      0.000u      0.000s      0.000w      6 calls
| DIISManager::extrapolate          :      0.000u      0.000s      0.000w      6 calls
| | bMatrix setup                   :      0.000u      0.000s      0.000w      6 calls
| | bMatrix pseudoinverse           :      0.000u      0.000s      0.000w      6 calls
| | New vector                      :      0.000u      0.000s      0.000w      6 calls
HF: Form C                          :      0.000u      0.000s      0.000w      6 calls

**************************************************************************************

Host: ws-b14-mmd

Timers On : Sat Dec 14 16:33:53 2019
Timers Off: Sat Dec 14 16:33:56 2019

Wall Time:        2.94 seconds

                                                       Time (seconds)
Module                                       User      System        Wall        Calls
Total PK formation time             :      0.050u      0.000s      0.030w      1 calls
HF: Form core H                     :      0.000u      0.000s      0.001w      1 calls
HF: Form S/X                        :      0.000u      0.000s      0.000w      1 calls
HF: Guess                           :      0.250u      0.017s      0.156w      1 calls
SAD Guess                           :      0.233u      0.017s      0.145w      1 calls
HF: Form G                          :      0.000u      0.000s      0.000w      7 calls
JK: D                               :      0.000u      0.000s      0.000w      7 calls
JK: USO2AO                          :      0.000u      0.000s      0.000w      7 calls
JK: JK                              :      0.000u      0.000s      0.000w      7 calls
PK computes JK                      :      0.000u      0.000s      0.000w      7 calls
JK: AO2USO                          :      0.000u      0.000s      0.000w      7 calls
HF: Form F                          :      0.000u      0.000s      0.000w      7 calls
HF: Form D                          :      0.000u      0.000s      0.000w      7 calls
HF: DIIS                            :      0.017u      0.000s      0.003w      6 calls
DIISManager::add_entry              :      0.000u      0.000s      0.000w      6 calls
DIISManager::extrapolate            :      0.000u      0.000s      0.000w      6 calls
bMatrix setup                       :      0.000u      0.000s      0.000w      6 calls
bMatrix pseudoinverse               :      0.000u      0.000s      0.000w      6 calls
New vector                          :      0.000u      0.000s      0.000w      6 calls
HF: Form C                          :      0.000u      0.000s      0.000w      6 calls

--------------------------------------------------------------------------------------
Total PK formation time             :      0.050u      0.000s      0.030w      1 calls
HF: Form core H                     :      0.000u      0.000s      0.001w      1 calls
HF: Form S/X                        :      0.000u      0.000s      0.000w      1 calls
HF: Guess                           :      0.250u      0.017s      0.156w      1 calls
| SAD Guess                         :      0.233u      0.017s      0.145w      1 calls
HF: Form G                          :      0.000u      0.000s      0.000w      7 calls
| JK: D                             :      0.000u      0.000s      0.000w      7 calls
| JK: USO2AO                        :      0.000u      0.000s      0.000w      7 calls
| JK: JK                            :      0.000u      0.000s      0.000w      7 calls
| | PK computes JK                  :      0.000u      0.000s      0.000w      7 calls
| JK: AO2USO                        :      0.000u      0.000s      0.000w      7 calls
HF: Form F                          :      0.000u      0.000s      0.000w      7 calls
HF: Form D                          :      0.000u      0.000s      0.000w      7 calls
HF: DIIS                            :      0.017u      0.000s      0.003w      6 calls
| DIISManager::add_entry            :      0.000u      0.000s      0.000w      6 calls
| DIISManager::extrapolate          :      0.000u      0.000s      0.000w      6 calls
| | bMatrix setup                   :      0.000u      0.000s      0.000w      6 calls
| | bMatrix pseudoinverse           :      0.000u      0.000s      0.000w      6 calls
| | New vector                      :      0.000u      0.000s      0.000w      6 calls
HF: Form C                          :      0.000u      0.000s      0.000w      6 calls

**************************************************************************************

Host: ws-b14-mmd

Timers On : Sat Dec 14 16:35:03 2019
Timers Off: Sat Dec 14 16:35:05 2019

Wall Time:        2.13 seconds

                                                       Time (seconds)
Module                                       User      System        Wall        Calls
Total PK formation time             :      0.050u      0.000s      0.028w      1 calls
HF: Form core H                     :      0.000u      0.000s      0.001w      1 calls
HF: Form S/X                        :      0.000u      0.000s      0.000w      1 calls
HF: Guess                           :      0.250u      0.000s      0.155w      1 calls
SAD Guess                           :      0.233u      0.000s      0.144w      1 calls
HF: Form G                          :      0.000u      0.000s      0.000w      7 calls
JK: D                               :      0.000u      0.000s      0.000w      7 calls
JK: USO2AO                          :      0.000u      0.000s      0.000w      7 calls
JK: JK                              :      0.000u      0.000s      0.000w      7 calls
PK computes JK                      :      0.000u      0.000s      0.000w      7 calls
JK: AO2USO                          :      0.000u      0.000s      0.000w      7 calls
HF: Form F                          :      0.000u      0.000s      0.000w      7 calls
HF: Form D                          :      0.000u      0.000s      0.000w      7 calls
HF: DIIS                            :      0.000u      0.000s      0.003w      6 calls
DIISManager::add_entry              :      0.000u      0.000s      0.000w      6 calls
DIISManager::extrapolate            :      0.000u      0.000s      0.000w      6 calls
bMatrix setup                       :      0.000u      0.000s      0.000w      6 calls
bMatrix pseudoinverse               :      0.000u      0.000s      0.000w      6 calls
New vector                          :      0.000u      0.000s      0.000w      6 calls
HF: Form C                          :      0.000u      0.000s      0.000w      6 calls

--------------------------------------------------------------------------------------
Total PK formation time             :      0.050u      0.000s      0.028w      1 calls
HF: Form core H                     :      0.000u      0.000s      0.001w      1 calls
HF: Form S/X                        :      0.000u      0.000s      0.000w      1 calls
HF: Guess                           :      0.250u      0.000s      0.155w      1 calls
| SAD Guess                         :      0.233u      0.000s      0.144w      1 calls
HF: Form G                          :      0.000u      0.000s      0.000w      7 calls
| JK: D                             :      0.000u      0.000s      0.000w      7 calls
| JK: USO2AO                        :      0.000u      0.000s      0.000w      7 calls
| JK: JK                            :      0.000u      0.000s      0.000w      7 calls
| | PK computes JK                  :      0.000u      0.000s      0.000w      7 calls
| JK: AO2USO                        :      0.000u      0.000s      0.000w      7 calls
HF: Form F                          :      0.000u      0.000s      0.000w      7 calls
HF: Form D                          :      0.000u      0.000s      0.000w      7 calls
HF: DIIS                            :      0.000u      0.000s      0.003w      6 calls
| DIISManager::add_entry            :      0.000u      0.000s      0.000w      6 calls
| DIISManager::extrapolate          :      0.000u      0.000s      0.000w      6 calls
| | bMatrix setup                   :      0.000u      0.000s      0.000w      6 calls
| | bMatrix pseudoinverse           :      0.000u      0.000s      0.000w      6 calls
| | New vector                      :      0.000u      0.000s      0.000w      6 calls
HF: Form C                          :      0.000u      0.000s      0.000w      6 calls

**************************************************************************************

Host: ws-b14-mmd

Timers On : Sat Dec 14 16:35:28 2019
Timers Off: Sat Dec 14 16:35:30 2019

Wall Time:        1.99 seconds

                                                       Time (seconds)
Module                                       User      System        Wall        Calls
Total PK formation time             :      0.050u      0.000s      0.028w      1 calls
HF: Form core H                     :      0.000u      0.000s      0.001w      1 calls
HF: Form S/X                        :      0.000u      0.000s      0.000w      1 calls
HF: Guess                           :      0.233u      0.000s      0.148w      1 calls
SAD Guess                           :      0.217u      0.000s      0.138w      1 calls
[...]
| | New vector                      :      0.000u      0.000s      0.000w     12 calls
HF: Form C                          :      0.000u      0.000s      0.001w     12 calls

**************************************************************************************

Host: ws-b14-mmd

Timers On : Sun Dec 15 13:02:38 2019
Timers Off: Sun Dec 15 13:02:40 2019

Wall Time:        1.78 seconds

                                                       Time (seconds)
Module                                       User      System        Wall        Calls
Total PK formation time             :      0.083u      0.000s      0.046w      1 calls
HF: Form core H                     :      0.000u      0.000s      0.001w      1 calls
HF: Form S/X                        :      0.000u      0.000s      0.000w      1 calls
HF: Guess                           :      0.283u      0.000s      0.168w      1 calls
SAD Guess                           :      0.267u      0.000s      0.157w      1 calls
HF: Form G                          :      0.000u      0.000s      0.001w     13 calls
JK: D                               :      0.000u      0.000s      0.000w     13 calls
JK: USO2AO                          :      0.000u      0.000s      0.000w     13 calls
JK: JK                              :      0.000u      0.000s      0.001w     13 calls
PK computes JK                      :      0.000u      0.000s      0.001w     13 calls
JK: AO2USO                          :      0.000u      0.000s      0.000w     13 calls
HF: Form F                          :      0.000u      0.000s      0.000w     13 calls
HF: Form D                          :      0.000u      0.000s      0.000w     13 calls
HF: DIIS                            :      0.000u      0.000s      0.006w     12 calls
DIISManager::add_entry              :      0.000u      0.000s      0.001w     12 calls
DIISManager::extrapolate            :      0.000u      0.000s      0.001w     12 calls
bMatrix setup                       :      0.000u      0.000s      0.001w     12 calls
bMatrix pseudoinverse               :      0.000u      0.000s      0.000w     12 calls
New vector                          :      0.000u      0.000s      0.000w     12 calls
HF: Form C                          :      0.017u      0.000s      0.001w     12 calls

--------------------------------------------------------------------------------------
Total PK formation time             :      0.083u      0.000s      0.046w      1 calls
HF: Form core H                     :      0.000u      0.000s      0.001w      1 calls
HF: Form S/X                        :      0.000u      0.000s      0.000w      1 calls
HF: Guess                           :      0.283u      0.000s      0.168w      1 calls
| SAD Guess                         :      0.267u      0.000s      0.157w      1 calls
HF: Form G                          :      0.000u      0.000s      0.001w     13 calls
| JK: D                             :      0.000u      0.000s      0.000w     13 calls
| JK: USO2AO                        :      0.000u      0.000s      0.000w     13 calls
| JK: JK                            :      0.000u      0.000s      0.001w     13 calls
| | PK computes JK                  :      0.000u      0.000s      0.001w     13 calls
| JK: AO2USO                        :      0.000u      0.000s      0.000w     13 calls
HF: Form F                          :      0.000u      0.000s      0.000w     13 calls
HF: Form D                          :      0.000u      0.000s      0.000w     13 calls
HF: DIIS                            :      0.000u      0.000s      0.006w     12 calls
| DIISManager::add_entry            :      0.000u      0.000s      0.001w     12 calls
| DIISManager::extrapolate          :      0.000u      0.000s      0.001w     12 calls
| | bMatrix setup                   :      0.000u      0.000s      0.001w     12 calls
| | bMatrix pseudoinverse           :      0.000u      0.000s      0.000w     12 calls
| | New vector                      :      0.000u      0.000s      0.000w     12 calls
HF: Form C                          :      0.017u      0.000s      0.001w     12 calls

**************************************************************************************

Host: ws-b14-mmd

Timers On : Sun Dec 15 13:03:05 2019
Timers Off: Sun Dec 15 13:03:05 2019

Wall Time:        0.69 seconds

                                                       Time (seconds)
Module                                       User      System        Wall        Calls
Total PK formation time             :      0.050u      0.000s      0.028w      1 calls
HF: Form core H                     :      0.000u      0.000s      0.001w      1 calls
HF: Form S/X                        :      0.000u      0.000s      0.000w      1 calls
HF: Guess                           :      0.267u      0.000s      0.161w      1 calls
SAD Guess                           :      0.250u      0.000s      0.150w      1 calls
HF: Form G                          :      0.000u      0.000s      0.000w      9 calls
JK: D                               :      0.000u      0.000s      0.000w      9 calls
JK: USO2AO                          :      0.000u      0.000s      0.000w      9 calls
JK: JK                              :      0.000u      0.000s      0.000w      9 calls
PK computes JK                      :      0.000u      0.000s      0.000w      9 calls
JK: AO2USO                          :      0.000u      0.000s      0.000w      9 calls
HF: Form F                          :      0.000u      0.000s      0.000w      9 calls
HF: Form D                          :      0.000u      0.000s      0.000w      9 calls
HF: DIIS                            :      0.000u      0.000s      0.004w      8 calls
DIISManager::add_entry              :      0.000u      0.000s      0.000w      8 calls
DIISManager::extrapolate            :      0.000u      0.000s      0.001w      8 calls
bMatrix setup                       :      0.000u      0.000s      0.000w      8 calls
bMatrix pseudoinverse               :      0.000u      0.000s      0.000w      8 calls
New vector                          :      0.000u      0.000s      0.000w      8 calls
HF: Form C                          :      0.000u      0.000s      0.000w      8 calls

--------------------------------------------------------------------------------------
Total PK formation time             :      0.050u      0.000s      0.028w      1 calls
HF: Form core H                     :      0.000u      0.000s      0.001w      1 calls
HF: Form S/X                        :      0.000u      0.000s      0.000w      1 calls
HF: Guess                           :      0.267u      0.000s      0.161w      1 calls
| SAD Guess                         :      0.250u      0.000s      0.150w      1 calls
HF: Form G                          :      0.000u      0.000s      0.000w      9 calls
| JK: D                             :      0.000u      0.000s      0.000w      9 calls
| JK: USO2AO                        :      0.000u      0.000s      0.000w      9 calls
| JK: JK                            :      0.000u      0.000s      0.000w      9 calls
| | PK computes JK                  :      0.000u      0.000s      0.000w      9 calls
| JK: AO2USO                        :      0.000u      0.000s      0.000w      9 calls
HF: Form F                          :      0.000u      0.000s      0.000w      9 calls
HF: Form D                          :      0.000u      0.000s      0.000w      9 calls
HF: DIIS                            :      0.000u      0.000s      0.004w      8 calls
| DIISManager::add_entry            :      0.000u      0.000s      0.000w      8 calls
| DIISManager::extrapolate          :      0.000u      0.000s      0.001w      8 calls
| | bMatrix setup                   :      0.000u      0.000s      0.000w      8 calls
| | bMatrix pseudoinverse           :      0.000u      0.000s      0.000w      8 calls
| | New vector                      :      0.000u      0.000s      0.000w      8 calls
HF: Form C                          :      0.000u      0.000s      0.000w      8 calls

**************************************************************************************

Host: ws-b14-mmd

Timers On : Sun Dec 15 13:04:55 2019
Timers Off: Sun Dec 15 13:04:56 2019

Wall Time:        0.71 seconds

                                                       Time (seconds)
Module                                       User      System        Wall        Calls
Total PK formation time             :      0.050u      0.000s      0.029w      1 calls
HF: Form core H                     :      0.000u      0.000s      0.001w      1 calls
HF: Form S/X                        :      0.000u      0.000s      0.000w      1 calls
HF: Guess                           :      0.267u      0.000s      0.162w      1 calls
SAD Guess                           :      0.250u      0.000s      0.151w      1 calls
HF: Form G                          :      0.000u      0.000s      0.000w      9 calls
JK: D                               :      0.000u      0.000s      0.000w      9 calls
JK: USO2AO                          :      0.000u      0.000s      0.000w      9 calls
JK: JK                              :      0.000u      0.000s      0.000w      9 calls
PK computes JK                      :      0.000u      0.000s      0.000w      9 calls
JK: AO2USO                          :      0.000u      0.000s      0.000w      9 calls
HF: Form F                          :      0.000u      0.000s      0.000w      9 calls
HF: Form D                          :      0.000u      0.000s      0.000w      9 calls
HF: DIIS                            :      0.000u      0.000s      0.003w      8 calls
DIISManager::add_entry              :      0.000u      0.000s      0.000w      8 calls
DIISManager::extrapolate            :      0.000u      0.000s      0.000w      8 calls
bMatrix setup                       :      0.000u      0.000s      0.000w      8 calls
bMatrix pseudoinverse               :      0.000u      0.000s      0.000w      8 calls
New vector                          :      0.000u      0.000s      0.000w      8 calls
HF: Form C                          :      0.000u      0.000s      0.000w      8 calls

--------------------------------------------------------------------------------------
Total PK formation time             :      0.050u      0.000s      0.029w      1 calls
HF: Form core H                     :      0.000u      0.000s      0.001w      1 calls
HF: Form S/X                        :      0.000u      0.000s      0.000w      1 calls
HF: Guess                           :      0.267u      0.000s      0.162w      1 calls
| SAD Guess                         :      0.250u      0.000s      0.151w      1 calls
HF: Form G                          :      0.000u      0.000s      0.000w      9 calls
| JK: D                             :      0.000u      0.000s      0.000w      9 calls
| JK: USO2AO                        :      0.000u      0.000s      0.000w      9 calls
| JK: JK                            :      0.000u      0.000s      0.000w      9 calls
| | PK computes JK                  :      0.000u      0.000s      0.000w      9 calls
| JK: AO2USO                        :      0.000u      0.000s      0.000w      9 calls
HF: Form F                          :      0.000u      0.000s      0.000w      9 calls
HF: Form D                          :      0.000u      0.000s      0.000w      9 calls
HF: DIIS                            :      0.000u      0.000s      0.003w      8 calls
| DIISManager::add_entry            :      0.000u      0.000s      0.000w      8 calls
| DIISManager::extrapolate          :      0.000u      0.000s      0.000w      8 calls
| | bMatrix setup                   :      0.000u      0.000s      0.000w      8 calls
| | bMatrix pseudoinverse           :      0.000u      0.000s      0.000w      8 calls
| | New vector                      :      0.000u      0.000s      0.000w      8 calls
HF: Form C                          :      0.000u      0.000s      0.000w      8 calls

**************************************************************************************

Host: ws-b14-mmd

Timers On : Sun Dec 15 13:05:09 2019
Timers Off: Sun Dec 15 13:05:12 2019

Wall Time:        3.47 seconds

                                                       Time (seconds)
Module                                       User      System        Wall        Calls
Total PK formation time             :      0.250u      0.000s      0.166w      1 calls
HF: Form core H                     :      0.000u      0.000s      0.001w      1 calls
HF: Form S/X                        :      0.000u      0.000s      0.001w      1 calls
HF: Guess                           :      0.317u      0.000s      0.181w      1 calls
SAD Guess                           :      0.300u      0.000s      0.171w      1 calls
HF: Form G                          :      0.000u      0.000s      0.021w     14 calls
JK: D                               :      0.000u      0.000s      0.000w     14 calls
JK: USO2AO                          :      0.000u      0.000s      0.000w     14 calls
JK: JK                              :      0.000u      0.000s      0.021w     14 calls
PK computes JK                      :      0.000u      0.000s      0.021w     14 calls
JK: AO2USO                          :      0.000u      0.000s      0.000w     14 calls
HF: Form F                          :      0.000u      0.000s      0.000w     14 calls
HF: Form D                          :      0.000u      0.000s      0.000w     14 calls
HF: DIIS                            :      0.000u      0.000s      0.008w     13 calls
DIISManager::add_entry              :      0.000u      0.000s      0.001w     13 calls
DIISManager::extrapolate            :      0.000u      0.000s      0.002w     13 calls
bMatrix setup                       :      0.000u      0.000s      0.001w     13 calls
bMatrix pseudoinverse               :      0.000u      0.000s      0.000w     13 calls
New vector                          :      0.000u      0.000s      0.001w     13 calls
HF: Form C                          :      0.000u      0.000s      0.005w     13 calls

--------------------------------------------------------------------------------------
Total PK formation time             :      0.250u      0.000s      0.166w      1 calls
HF: Form core H                     :      0.000u      0.000s      0.001w      1 calls
HF: Form S/X                        :      0.000u      0.000s      0.001w      1 calls
HF: Guess                           :      0.317u      0.000s      0.181w      1 calls
| SAD Guess                         :      0.300u      0.000s      0.171w      1 calls
HF: Form G                          :      0.000u      0.000s      0.021w     14 calls
| JK: D                             :      0.000u      0.000s      0.000w     14 calls
| JK: USO2AO                        :      0.000u      0.000s      0.000w     14 calls
| JK: JK                            :      0.000u      0.000s      0.021w     14 calls
| | PK computes JK                  :      0.000u      0.000s      0.021w     14 calls
| JK: AO2USO                        :      0.000u      0.000s      0.000w     14 calls
HF: Form F                          :      0.000u      0.000s      0.000w     14 calls
HF: Form D                          :      0.000u      0.000s      0.000w     14 calls
HF: DIIS                            :      0.000u      0.000s      0.008w     13 calls
| DIISManager::add_entry            :      0.000u      0.000s      0.001w     13 calls
| DIISManager::extrapolate          :      0.000u      0.000s      0.002w     13 calls
| | bMatrix setup                   :      0.000u      0.000s      0.001w     13 calls
| | bMatrix pseudoinverse           :      0.000u      0.000s      0.000w     13 calls
| | New vector                      :      0.000u      0.000s      0.001w     13 calls
HF: Form C                          :      0.000u      0.000s      0.005w     13 calls

**************************************************************************************

Host: ws-b14-mmd

Timers On : Sun Dec 15 13:05:21 2019
Timers Off: Sun Dec 15 13:05:24 2019

Wall Time:        3.43 seconds

                                                       Time (seconds)
Module                                       User      System        Wall        Calls
Total PK formation time             :      0.250u      0.017s      0.160w      1 calls
HF: Form core H                     :      0.000u      0.000s      0.001w      1 calls
HF: Form S/X                        :      0.000u      0.000s      0.001w      1 calls
HF: Guess                           :      0.317u      0.000s      0.181w      1 calls
SAD Guess                           :      0.283u      0.000s      0.170w      1 calls
HF: Form G                          :      0.067u      0.000s      0.023w     14 calls
JK: D                               :      0.000u      0.000s      0.000w     14 calls
JK: USO2AO                          :      0.000u      0.000s      0.000w     14 calls
JK: JK                              :      0.067u      0.000s      0.022w     14 calls
PK computes JK                      :      0.067u      0.000s      0.022w     14 calls
JK: AO2USO                          :      0.000u      0.000s      0.000w     14 calls
HF: Form F                          :      0.000u      0.000s      0.000w     14 calls
HF: Form D                          :      0.000u      0.000s      0.000w     14 calls
HF: DIIS                            :      0.000u      0.000s      0.010w     13 calls
DIISManager::add_entry              :      0.000u      0.000s      0.001w     13 calls
DIISManager::extrapolate            :      0.000u      0.000s      0.003w     13 calls
bMatrix setup                       :      0.000u      0.000s      0.001w     13 calls
bMatrix pseudoinverse               :      0.000u      0.000s      0.000w     13 calls
New vector                          :      0.000u      0.000s      0.001w     13 calls
HF: Form C                          :      0.000u      0.000s      0.006w     13 calls

--------------------------------------------------------------------------------------
Total PK formation time             :      0.250u      0.017s      0.160w      1 calls
HF: Form core H                     :      0.000u      0.000s      0.001w      1 calls
HF: Form S/X                        :      0.000u      0.000s      0.001w      1 calls
HF: Guess                           :      0.317u      0.000s      0.181w      1 calls
| SAD Guess                         :      0.283u      0.000s      0.170w      1 calls
HF: Form G                          :      0.067u      0.000s      0.023w     14 calls
| JK: D                             :      0.000u      0.000s      0.000w     14 calls
| JK: USO2AO                        :      0.000u      0.000s      0.000w     14 calls
| JK: JK                            :      0.067u      0.000s      0.022w     14 calls
| | PK computes JK                  :      0.067u      0.000s      0.022w     14 calls
| JK: AO2USO                        :      0.000u      0.000s      0.000w     14 calls
HF: Form F                          :      0.000u      0.000s      0.000w     14 calls
HF: Form D                          :      0.000u      0.000s      0.000w     14 calls
HF: DIIS                            :      0.000u      0.000s      0.010w     13 calls
| DIISManager::add_entry            :      0.000u      0.000s      0.001w     13 calls
| DIISManager::extrapolate          :      0.000u      0.000s      0.003w     13 calls
| | bMatrix setup                   :      0.000u      0.000s      0.001w     13 calls
| | bMatrix pseudoinverse           :      0.000u      0.000s      0.000w     13 calls
| | New vector                      :      0.000u      0.000s      0.001w     13 calls
HF: Form C                          :      0.000u      0.000s      0.006w     13 calls

**************************************************************************************
