
    -----------------------------------------------------------------------
          Psi4: An Open-Source Ab Initio Electronic Structure Package
                               Psi4 1.3.2 release

                         Git: Rev {HEAD} ecbda83 


    R. M. Parrish, L. A. Burns, D. G. A. Smith, A. C. Simmonett,
    A. E. DePrince III, E. G. Hohenstein, U. Bozkaya, A. Yu. Sokolov,
    R. Di Remigio, R. M. Richard, J. F. Gonthier, A. M. James,
    H. R. McAlexander, A. Kumar, M. Saitow, X. Wang, B. P. Pritchard,
    P. Verma, H. F. Schaefer III, K. Patkowski, R. A. King, E. F. Valeev,
    F. A. Evangelista, J. M. Turney, T. D. Crawford, and C. D. Sherrill,
    J. Chem. Theory Comput. 13(7) pp 3185--3197 (2017).
    (doi: 10.1021/acs.jctc.7b00174)


                         Additional Contributions by
    P. Kraus, H. Kruse, M. H. Lechner, M. C. Schieber, R. A. Shaw,
    A. Alenaizan, R. Galvelis, Z. L. Glick, S. Lehtola, and J. P. Misiewicz

    -----------------------------------------------------------------------


    Psi4 started on: Thursday, 19 December 2019 01:15PM

    Process ID: 29102
    Host:       davis-ws
    PSIDATADIR: /home/mmd01986/.conda/envs/p4env/share/psi4
    Memory:     500.0 MiB
    Threads:    1
    
  ==> Input File <==

--------------------------------------------------------------------------
memory 4 GB

molecule {
O
H 1 1.1
H 1 1.1 2 104.0
symmetry c1
}

set basis cc-pvtz
energy('ccsd')
--------------------------------------------------------------------------

  Memory set to   3.725 GiB by Python driver.

*** tstart() called on davis-ws
*** at Thu Dec 19 13:15:36 2019

   => Loading Basis Set <=

    Name: CC-PVTZ
    Role: ORBITAL
    Keyword: BASIS
    atoms 1   entry O          line   262 file /home/mmd01986/.conda/envs/p4env/share/psi4/basis/cc-pvtz.gbs 
    atoms 2-3 entry H          line    23 file /home/mmd01986/.conda/envs/p4env/share/psi4/basis/cc-pvtz.gbs 


         ---------------------------------------------------------
                                   SCF
               by Justin Turney, Rob Parrish, Andy Simmonett
                          and Daniel G. A. Smith
                              RHF Reference
                        1 Threads,   3814 MiB Core
         ---------------------------------------------------------

  ==> Geometry <==

    Molecular point group: c1
    Full point group: C2v

    Geometry (in Angstrom), charge = 0, multiplicity = 1:

       Center              X                  Y                   Z               Mass       
    ------------   -----------------  -----------------  -----------------  -----------------
         O            0.000000000000     0.000000000000    -0.075791843599    15.994914619570
         H            0.000000000000    -0.866811828967     0.601435779259     1.007825032230
         H            0.000000000000     0.866811828967     0.601435779259     1.007825032230

  Running in c1 symmetry.

  Rotational constants: A =     20.53324  B =     11.13094  C =      7.21807 [cm^-1]
  Rotational constants: A = 615570.98071  B = 333697.07813  C = 216392.23582 [MHz]
  Nuclear repulsion =    8.002366482173422

  Charge       = 0
  Multiplicity = 1
  Electrons    = 10
  Nalpha       = 5
  Nbeta        = 5

  ==> Algorithm <==

  SCF Algorithm Type is PK.
  DIIS enabled.
  MOM disabled.
  Fractional occupation disabled.
  Guess Type is SAD.
  Energy threshold   = 1.00e-08
  Density threshold  = 1.00e-08
  Integral threshold = 0.00e+00

  ==> Primary Basis <==

  Basis Set: CC-PVTZ
    Blend: CC-PVTZ
    Number of shells: 22
    Number of basis function: 58
    Number of Cartesian functions: 65
    Spherical Harmonics?: true
    Max angular momentum: 3

  ==> Pre-Iterations <==

   -------------------------------------------------------
    Irrep   Nso     Nmo     Nalpha   Nbeta   Ndocc  Nsocc
   -------------------------------------------------------
     A         58      58       0       0       0       0
   -------------------------------------------------------
    Total      58      58       5       5       5       0
   -------------------------------------------------------

  ==> Integral Setup <==

  Using in-core PK algorithm.
   Calculation information:
      Number of atoms:                   3
      Number of AO shells:              22
      Number of primitives:             42
      Number of atomic orbitals:        65
      Number of basis functions:        58

      Integral cutoff                 1.00e-12
      Number of threads:                 1

  Performing in-core PK
  Using 2929232 doubles for integral storage.
  We computed 32131 shell quartets total.
  Whereas there are 32131 unique shell quartets.

  ==> DiskJK: Disk-Based J/K Matrices <==

    J tasked:                  Yes
    K tasked:                  Yes
    wK tasked:                  No
    Memory [MiB]:             2861
    Schwarz Cutoff:          1E-12

    OpenMP threads:              1

  Minimum eigenvalue in the overlap matrix is 4.2639446970E-03.
  Using Symmetric Orthogonalization.

  SCF Guess: Superposition of Atomic Densities via on-the-fly atomic UHF.

  ==> Iterations <==

                        Total Energy        Delta E     RMS |[F,P]|

   @RHF iter SAD:   -75.32025084911943   -7.53203e+01   0.00000e+00 
   @RHF iter   1:   -75.92788307692928   -6.07632e-01   7.82528e-03 DIIS
   @RHF iter   2:   -75.97939983977494   -5.15168e-02   5.93638e-03 DIIS
   @RHF iter   3:   -76.01717470599912   -3.77749e-02   4.66938e-04 DIIS
   @RHF iter   4:   -76.01784958654110   -6.74881e-04   1.41624e-04 DIIS
   @RHF iter   5:   -76.01791787333843   -6.82868e-05   2.81403e-05 DIIS
   @RHF iter   6:   -76.01792169058717   -3.81725e-06   5.27085e-06 DIIS
   @RHF iter   7:   -76.01792181378431   -1.23197e-07   8.92509e-07 DIIS
   @RHF iter   8:   -76.01792181726992   -3.48561e-09   2.18091e-07 DIIS
   @RHF iter   9:   -76.01792181751884   -2.48917e-10   6.51972e-08 DIIS
   @RHF iter  10:   -76.01792181754116   -2.23253e-11   6.02257e-09 DIIS
  Energy and wave function converged.


  ==> Post-Iterations <==

    Orbital Energies [Eh]
    ---------------------

    Doubly Occupied:                                                      

       1A    -20.578257     2A     -1.284835     3A     -0.638602  
       4A     -0.551674     5A     -0.496005  

    Virtual:                                                              

       6A      0.123391     7A      0.186772     8A      0.485460  
       9A      0.522868    10A      0.696847    11A      0.773194  
      12A      0.784276    13A      0.813192    14A      0.832905  
      15A      0.950218    16A      1.119067    17A      1.254349  
      18A      1.367943    19A      1.405735    20A      1.976607  
      21A      2.002101    22A      2.105616    23A      2.260149  
      24A      2.310206    25A      2.565059    26A      2.826624  
      27A      3.354392    28A      3.433152    29A      3.490007  
      30A      3.499373    31A      3.682092    32A      3.692761  
      33A      3.860866    34A      3.879851    35A      3.965036  
      36A      3.975462    37A      4.008835    38A      4.101860  
      39A      4.156433    40A      4.280424    41A      4.534945  
      42A      4.602658    43A      4.734792    44A      5.202848  
      45A      5.518863    46A      5.822340    47A      6.111244  
      48A      6.434725    49A      6.535495    50A      6.649928  
      51A      6.684172    52A      7.006724    53A      7.128377  
      54A      7.167362    55A      7.397840    56A      7.580904  
      57A      7.636348    58A     10.815763  

    Final Occupation by Irrep:
              A 
    DOCC [     5 ]

  @RHF Final Energy:   -76.01792181754116

   => Energetics <=

    Nuclear Repulsion Energy =              8.0023664821734215
    One-Electron Energy =                -120.9418307603716300
    Two-Electron Energy =                  36.9215424606570508
    Total Energy =                        -76.0179218175411648

Computation Completed


Properties will be evaluated at   0.000000,   0.000000,   0.000000 [a0]

Properties computed using the SCF density matrix

  Nuclear Dipole Moment: [e a0]
     X:     0.0000      Y:     0.0000      Z:     1.1273

  Electronic Dipole Moment: [e a0]
     X:     0.0000      Y:     0.0000      Z:    -0.2877

  Dipole Moment: [e a0]
     X:     0.0000      Y:     0.0000      Z:     0.8396     Total:     0.8396

  Dipole Moment: [D]
     X:     0.0000      Y:     0.0000      Z:     2.1341     Total:     2.1341


*** tstop() called on davis-ws at Thu Dec 19 13:15:36 2019
Module time:
	user time   =       0.41 seconds =       0.01 minutes
	system time =       0.02 seconds =       0.00 minutes
	total time  =          0 seconds =       0.00 minutes
Total time:
	user time   =       0.41 seconds =       0.01 minutes
	system time =       0.02 seconds =       0.00 minutes
	total time  =          0 seconds =       0.00 minutes
 MINTS: Wrapper to libmints.
   by Justin Turney

   Calculation information:
      Number of threads:                 1
      Number of atoms:                   3
      Number of AO shells:              22
      Number of SO shells:              22
      Number of primitives:             42
      Number of atomic orbitals:        65
      Number of basis functions:        58

      Number of irreps:                  1
      Integral cutoff                 0.00e+00
      Number of functions per irrep: [  58 ]

 OEINTS: Overlap, kinetic, potential, dipole, and quadrupole integrals
         stored in file 35.

      Computing two-electron integrals...done
      Computed 702004 non-zero two-electron integrals.
        Stored in file 33.


*** tstart() called on davis-ws
*** at Thu Dec 19 13:15:36 2019


	Wfn Parameters:
	--------------------
	Wavefunction         = CCSD
	Number of irreps     = 1
	Number of MOs        = 58
	Number of active MOs = 58
	AO-Basis             = NONE
	Semicanonical        = false
	Reference            = RHF
	Print Level          = 1

	IRREP	# MOs	# FZDC	# DOCC	# SOCC	# VIRT	# FZVR
	-----	-----	------	------	------	------	------
	 A	   58	    0	    5	    0	    53	    0
	Transforming integrals...
	IWL integrals will be deleted.
	(OO|OO)...
	Presorting SO-basis two-electron integrals.
	Sorting File: SO Ints (nn|nn) nbuckets = 1
	Transforming the one-electron integrals and constructing Fock matrices
	Starting first half-transformation.
	Sorting half-transformed integrals.
	First half integral transformation complete.
	Starting second half-transformation.
	Two-electron integral transformation complete.
	(OO|OV)...
	Starting second half-transformation.
	Two-electron integral transformation complete.
	(OO|VV)...
	Starting second half-transformation.
	Two-electron integral transformation complete.
	(OV|OO)...
	Starting first half-transformation.
	Sorting half-transformed integrals.
	First half integral transformation complete.
	Starting second half-transformation.
	Two-electron integral transformation complete.
	(OV|OV)...
	Starting second half-transformation.
	Two-electron integral transformation complete.
	(OV|VV)...
	Starting second half-transformation.
	Two-electron integral transformation complete.
	(VV|OO)...
	Starting first half-transformation.
	Sorting half-transformed integrals.
	First half integral transformation complete.
	Starting second half-transformation.
	Two-electron integral transformation complete.
	(VV|OV)...
	Starting second half-transformation.
	Two-electron integral transformation complete.
	(VV|VV)...
	Starting second half-transformation.
	Two-electron integral transformation complete.
	Frozen core energy     =      0.00000000000000

	Size of irrep 0 of <ab|cd> integrals:      7.890 (MW) /     63.124 (MB)
	Total:                                     7.890 (MW) /     63.124 (MB)

	Size of irrep 0 of <ia|bc> integrals:      0.744 (MW) /      5.955 (MB)
	Total:                                     0.744 (MW) /      5.955 (MB)

	Size of irrep 0 of tijab amplitudes:       0.070 (MW) /      0.562 (MB)
	Total:                                     0.070 (MW) /      0.562 (MB)

	Nuclear Rep. energy          =      8.00236648217342
	SCF energy                   =    -76.01792181754116
	One-electron energy          =   -120.94183024597835
	Two-electron energy          =     36.92154194626348
	Reference energy             =    -76.01792181754146

*** tstop() called on davis-ws at Thu Dec 19 13:15:37 2019
Module time:
	user time   =       0.31 seconds =       0.01 minutes
	system time =       0.26 seconds =       0.00 minutes
	total time  =          1 seconds =       0.02 minutes
Total time:
	user time   =       0.80 seconds =       0.01 minutes
	system time =       0.29 seconds =       0.00 minutes
	total time  =          1 seconds =       0.02 minutes
            **************************
            *                        *
            *        CCENERGY        *
            *                        *
            **************************

    Nuclear Rep. energy (wfn)     =    8.002366482173422
    SCF energy          (wfn)     =  -76.017921817541165
    Reference energy    (file100) =  -76.017921817541463

    Input parameters:
    -----------------
    Wave function   =     CCSD
    Reference wfn   =     RHF
    Brueckner       =     No
    Memory (Mbytes) =     4000.0
    Maxiter         =     50
    R_Convergence   =     1.0e-07
    E_Convergence   =     1.0e-06
    Restart         =     Yes
    DIIS            =     Yes
    AO Basis        =     NONE
    ABCD            =     NEW
    Cache Level     =     2
    Cache Type      =     LOW
    Print Level     =     1
    Num. of threads =     1
    # Amps to Print =     10
    Print MP2 Amps? =     No
    Analyze T2 Amps =     No
    Print Pair Ener =     No
    Local CC        =     No
    SCS-MP2         =     False
    SCSN-MP2        =     False
    SCS-CCSD        =     False

MP2 correlation energy -0.2852483858035361
                Solving CC Amplitude Equations
                ------------------------------
  Iter             Energy              RMS        T1Diag      D1Diag    New D1Diag    D2Diag
  ----     ---------------------    ---------   ----------  ----------  ----------   --------
     0        -0.285248385803536    0.000e+00    0.000000    0.000000    0.000000    0.131087
     1        -0.282242546388337    3.635e-02    0.006548    0.011974    0.011974    0.135160
     2        -0.288766573942352    1.444e-02    0.006758    0.012296    0.012296    0.142259
     3        -0.290067225320687    5.333e-03    0.007688    0.014512    0.014512    0.145668
     4        -0.290063323907136    1.156e-03    0.007774    0.014836    0.014836    0.146086
     5        -0.290106351459506    4.400e-04    0.007829    0.015116    0.015116    0.146189
     6        -0.290106557278076    1.471e-04    0.007849    0.015238    0.015238    0.146171
     7        -0.290106156245393    4.541e-05    0.007857    0.015279    0.015279    0.146165
     8        -0.290105346407563    1.287e-05    0.007859    0.015290    0.015290    0.146163
     9        -0.290105101434037    3.015e-06    0.007859    0.015292    0.015292    0.146163
    10        -0.290105121184262    8.205e-07    0.007859    0.015292    0.015292    0.146163
    11        -0.290105118259843    1.718e-07    0.007859    0.015292    0.015292    0.146163
    12        -0.290105123273472    4.382e-08    0.007859    0.015292    0.015292    0.146163

    Iterations converged.


    Largest TIA Amplitudes:
              4   5        -0.0109155499
              3   0        -0.0099601205
              2  13         0.0081209117
              3  12        -0.0069202911
              2   7         0.0063540108
              1   4        -0.0057850360
              2  29         0.0054550210
              3  30         0.0049686974
              3   3         0.0040808076
              3   6         0.0039257614

    Largest TIjAb Amplitudes:
      4   4   5   5        -0.0457182818
      2   2   2   2        -0.0342758154
      2   2   1   1        -0.0332089305
      3   3   4   4        -0.0322668139
      2   2   3   3        -0.0290259607
      3   4   4   5         0.0259897421
      4   3   5   4         0.0259897421
      3   3   0   0        -0.0254976506
      2   2   1   2        -0.0253461655
      2   2   2   1        -0.0253461655

    SCF energy       (wfn)                    =  -76.017921817541165
    Reference energy (file100)                =  -76.017921817541463

    Opposite-spin MP2 correlation energy      =   -0.216633797319704
    Same-spin MP2 correlation energy          =   -0.068614588483832
    MP2 correlation energy                    =   -0.285248385803536
      * MP2 total energy                      =  -76.303170203345005

    Opposite-spin CCSD correlation energy     =   -0.230486711596943
    Same-spin CCSD correlation energy         =   -0.059618411676529
    CCSD correlation energy                   =   -0.290105123273472
      * CCSD total energy                     =  -76.308026940814941


    Psi4 stopped on: Thursday, 19 December 2019 01:15PM
    Psi4 wall time for execution: 0:00:01.79

*** Psi4 exiting successfully. Buy a developer a beer!
