
    -----------------------------------------------------------------------
          Psi4: An Open-Source Ab Initio Electronic Structure Package
                               Psi4 1.2.1 release

                         Git: Rev {HEAD} 406f4de 


    R. M. Parrish, L. A. Burns, D. G. A. Smith, A. C. Simmonett,
    A. E. DePrince III, E. G. Hohenstein, U. Bozkaya, A. Yu. Sokolov,
    R. Di Remigio, R. M. Richard, J. F. Gonthier, A. M. James,
    H. R. McAlexander, A. Kumar, M. Saitow, X. Wang, B. P. Pritchard,
    P. Verma, H. F. Schaefer III, K. Patkowski, R. A. King, E. F. Valeev,
    F. A. Evangelista, J. M. Turney, T. D. Crawford, and C. D. Sherrill,
    J. Chem. Theory Comput. 13(7) pp 3185--3197 (2017).
    (doi: 10.1021/acs.jctc.7b00174)


                         Additional Contributions by
    P. Kraus, H. Kruse, M. H. Lechner, M. C. Schieber, and R. A. Shaw

    -----------------------------------------------------------------------


    Psi4 started on: Sunday, 27 October 2019 02:39PM

    Process ID: 16974
    Host:       ws-b14-mmd
    PSIDATADIR: /home/mmd01986/psi4conda/share/psi4
    Memory:     500.0 MiB
    Threads:    1
    
  ==> Input File <==

--------------------------------------------------------------------------
memory 2 GB

molecule {
0 1
O
H 1 1.1 
H 1 1.1 2 104.0
}

set basis sto-3g
set scf_type pk
set guess core
energy('scf')
--------------------------------------------------------------------------

  Memory set to   1.863 GiB by Python driver.

*** tstart() called on ws-b14-mmd
*** at Sun Oct 27 14:39:42 2019

   => Loading Basis Set <=

    Name: STO-3G
    Role: ORBITAL
    Keyword: BASIS
    atoms 1   entry O          line    81 file /home/mmd01986/psi4conda/share/psi4/basis/sto-3g.gbs 
    atoms 2-3 entry H          line    19 file /home/mmd01986/psi4conda/share/psi4/basis/sto-3g.gbs 


         ---------------------------------------------------------
                                   SCF
            by Justin Turney, Rob Parrish, Andy Simmonett
                             and Daniel Smith
                              RHF Reference
                        1 Threads,   1907 MiB Core
         ---------------------------------------------------------

  ==> Geometry <==

    Molecular point group: c2v
    Full point group: C2v

    Geometry (in Angstrom), charge = 0, multiplicity = 1:

       Center              X                  Y                   Z               Mass       
    ------------   -----------------  -----------------  -----------------  -----------------
         O            0.000000000000     0.000000000000    -0.075791843589    15.994914619560
         H            0.000000000000    -0.866811828967     0.601435779270     1.007825032070
         H            0.000000000000     0.866811828967     0.601435779270     1.007825032070

  Running in c2v symmetry.

  Rotational constants: A =     20.53324  B =     11.13094  C =      7.21807 [cm^-1]
  Rotational constants: A = 615570.97611  B = 333697.07564  C = 216392.23421 [MHz]
  Nuclear repulsion =    8.002366450719078

  Charge       = 0
  Multiplicity = 1
  Electrons    = 10
  Nalpha       = 5
  Nbeta        = 5

  ==> Algorithm <==

  SCF Algorithm Type is PK.
  DIIS enabled.
  MOM disabled.
  Fractional occupation disabled.
  Guess Type is CORE.
  Energy threshold   = 1.00e-06
  Density threshold  = 1.00e-06
  Integral threshold = 0.00e+00

  ==> Primary Basis <==

  Basis Set: STO-3G
    Blend: STO-3G
    Number of shells: 5
    Number of basis function: 7
    Number of Cartesian functions: 7
    Spherical Harmonics?: true
    Max angular momentum: 1

  ==> Pre-Iterations <==

   -------------------------------------------------------
    Irrep   Nso     Nmo     Nalpha   Nbeta   Ndocc  Nsocc
   -------------------------------------------------------
     A1         4       4       0       0       0       0
     A2         0       0       0       0       0       0
     B1         1       1       0       0       0       0
     B2         2       2       0       0       0       0
   -------------------------------------------------------
    Total       7       7       5       5       5       0
   -------------------------------------------------------

  ==> Integral Setup <==

  Using in-core PK algorithm.
   Calculation information:
      Number of atoms:                   3
      Number of AO shells:               5
      Number of primitives:             15
      Number of atomic orbitals:         7
      Number of basis functions:         7

      Integral cutoff                 1.00e-12
      Number of threads:                 1

  Performing in-core PK
  Using 812 doubles for integral storage.
  We computed 120 shell quartets total.
  Whereas there are 120 unique shell quartets.

  ==> DiskJK: Disk-Based J/K Matrices <==

    J tasked:                  Yes
    K tasked:                  Yes
    wK tasked:                  No
    Memory (MB):              1430
    Schwarz Cutoff:          1E-12

    OpenMP threads:              1

  Minimum eigenvalue in the overlap matrix is 4.3422219878E-01.
  Using Symmetric Orthogonalization.

  SCF Guess: Core (One-Electron) Hamiltonian.

  ==> Iterations <==

                        Total Energy        Delta E     RMS |[F,P]|

   @RHF iter   1:   -73.28579644230383   -7.32858e+01   1.84416e-01 
   @RHF iter   2:   -74.82812525069400   -1.54233e+00   7.76428e-02 DIIS
   @RHF iter   3:   -74.93872131194523   -1.10596e-01   1.11697e-02 DIIS
   @RHF iter   4:   -74.94185066963372   -3.12936e-03   2.65051e-03 DIIS
   @RHF iter   5:   -74.94205429378312   -2.03624e-04   8.03566e-04 DIIS
   @RHF iter   6:   -74.94207976912342   -2.54753e-05   6.67311e-05 DIIS
   @RHF iter   7:   -74.94207989707432   -1.27951e-07   4.50885e-07 DIIS

  ==> Post-Iterations <==

    Orbital Energies [Eh]
    ---------------------

    Doubly Occupied:                                                      

       1A1   -20.262891     2A1    -1.209697     1B2    -0.547965  
       3A1    -0.436527     1B1    -0.387587  

    Virtual:                                                              

       4A1     0.477619     2B2     0.588139  

    Final Occupation by Irrep:
             A1    A2    B1    B2 
    DOCC [     3,    0,    1,    1 ]

  Energy converged.

  @RHF Final Energy:   -74.94207989707432

   => Energetics <=

    Nuclear Repulsion Energy =              8.0023664507190784
    One-Electron Energy =                -120.1995477854200232
    Two-Electron Energy =                  37.2551014376266210
    Total Energy =                        -74.9420798970743220



Properties will be evaluated at   0.000000,   0.000000,   0.000000 [a0]

Properties computed using the SCF density matrix

  Nuclear Dipole Moment: [e a0]
     X:     0.0000      Y:     0.0000      Z:     1.1273

  Electronic Dipole Moment: [e a0]
     X:     0.0000      Y:     0.0000      Z:    -0.5238

  Dipole Moment: [e a0]
     X:     0.0000      Y:     0.0000      Z:     0.6035     Total:     0.6035

  Dipole Moment: [D]
     X:     0.0000      Y:     0.0000      Z:     1.5340     Total:     1.5340


*** tstop() called on ws-b14-mmd at Sun Oct 27 14:39:42 2019
Module time:
	user time   =       0.07 seconds =       0.00 minutes
	system time =       0.00 seconds =       0.00 minutes
	total time  =          0 seconds =       0.00 minutes
Total time:
	user time   =       0.07 seconds =       0.00 minutes
	system time =       0.00 seconds =       0.00 minutes
	total time  =          0 seconds =       0.00 minutes

    Psi4 stopped on: Sunday, 27 October 2019 02:39PM
    Psi4 wall time for execution: 0:00:00.11

*** Psi4 exiting successfully. Buy a developer a beer!
