
Host: ws-b14-mmd

Timers On : Tue Nov 19 09:24:06 2019
Timers Off: Tue Nov 19 09:24:06 2019

Wall Time:        0.30 seconds

                                                       Time (seconds)
Module                                       User      System        Wall        Calls

--------------------------------------------------------------------------------------

**************************************************************************************

Host: davis-ws

Timers On : Tue Nov 19 12:03:45 2019
Timers Off: Tue Nov 19 12:03:45 2019

Wall Time:        0.25 seconds

                                                       Time (seconds)
Module                                       User      System        Wall        Calls

--------------------------------------------------------------------------------------

**************************************************************************************

Host: davis-ws

Timers On : Tue Nov 19 12:12:00 2019
Timers Off: Tue Nov 19 12:12:00 2019

Wall Time:        0.38 seconds

                                                       Time (seconds)
Module                                       User      System        Wall        Calls

--------------------------------------------------------------------------------------

**************************************************************************************

Host: davis-ws

Timers On : Tue Nov 19 12:13:10 2019
Timers Off: Tue Nov 19 12:13:10 2019

Wall Time:        0.31 seconds

                                                       Time (seconds)
Module                                       User      System        Wall        Calls

--------------------------------------------------------------------------------------

**************************************************************************************

Host: davis-ws

Timers On : Tue Nov 19 12:23:53 2019
Timers Off: Tue Nov 19 12:23:54 2019

Wall Time:        0.42 seconds

                                                       Time (seconds)
Module                                       User      System        Wall        Calls

--------------------------------------------------------------------------------------

**************************************************************************************

Host: davis-ws

Timers On : Tue Nov 19 12:24:20 2019
Timers Off: Tue Nov 19 12:24:21 2019

Wall Time:        0.31 seconds

                                                       Time (seconds)
Module                                       User      System        Wall        Calls

--------------------------------------------------------------------------------------

**************************************************************************************

Host: davis-ws

Timers On : Tue Nov 19 12:31:57 2019
Timers Off: Tue Nov 19 12:31:57 2019

Wall Time:        0.43 seconds

                                                       Time (seconds)
Module                                       User      System        Wall        Calls

--------------------------------------------------------------------------------------

**************************************************************************************

Host: davis-ws

Timers On : Tue Nov 19 12:32:29 2019
Timers Off: Tue Nov 19 12:32:29 2019

Wall Time:        0.30 seconds

                                                       Time (seconds)
Module                                       User      System        Wall        Calls

--------------------------------------------------------------------------------------

**************************************************************************************
